/*--------------------------------*- C++ -*----------------------------------*\
  =========                 |
  \\      /  F ield         | OpenFOAM: The Open Source CFD Toolbox
   \\    /   O peration     | Website:  https://openfoam.org
    \\  /    A nd           | Version:  dev
     \\/     M anipulation  |
\*---------------------------------------------------------------------------*/
FoamFile
{
    format      ascii;
    class       volScalarField;
    location    "0.1";
    object      alphat;
}
// * * * * * * * * * * * * * * * * * * * * * * * * * * * * * * * * * * * * * //

dimensions      [1 -1 -1 0 0 0 0];

internalField   nonuniform List<scalar> 
400
(
4.871628723e-06
5.250972283e-06
5.492900241e-06
5.586372253e-06
5.61517929e-06
5.623426015e-06
5.62604333e-06
5.627229079e-06
5.628069467e-06
5.628830351e-06
5.630210291e-06
5.632267568e-06
5.634131824e-06
5.635418556e-06
5.634867922e-06
5.627886092e-06
5.598831248e-06
5.50271361e-06
5.255748263e-06
4.871620758e-06
5.256230801e-06
4.167621101e-05
6.799619196e-05
7.805807622e-05
8.128427032e-05
8.229202732e-05
8.267915374e-05
8.29107776e-05
8.310948012e-05
8.330015659e-05
8.343866316e-05
8.351576158e-05
8.3572563e-05
8.357208332e-05
8.336999411e-05
8.245433098e-05
7.913756847e-05
6.867839206e-05
4.164927009e-05
5.250872475e-06
5.504468001e-06
6.873148063e-05
0.0001789932129
0.0002578684379
0.000293727388
0.0003072113075
0.0003119938968
0.0003138280278
0.0003147406155
0.0003153646385
0.0003157996008
0.0003160207243
0.000315897284
0.0003147189569
0.0003102964813
0.0002965726232
0.000259502731
0.0001787489348
6.785202742e-05
5.492378631e-06
5.602619072e-06
7.926007154e-05
0.0002599410692
0.000457197544
0.0005841336015
0.0006454996119
0.000670979294
0.000680829189
0.000684709983
0.0006864345444
0.0006871617649
0.0006868346312
0.0006841452617
0.0006750073158
0.0006492888047
0.0005861829465
0.0004562339184
0.0002571733393
7.772114315e-05
5.585127591e-06
5.63427783e-06
8.267433417e-05
0.0002973753945
0.0005876295169
0.0008225488914
0.0009603015618
0.001026535795
0.001054563045
0.001065550896
0.001069590943
0.001070325468
0.001067612676
0.001057498911
0.001029382824
0.0009614904325
0.0008204089058
0.0005822731943
0.000292350016
8.070486534e-05
5.613019002e-06
5.644504377e-06
8.371185538e-05
0.0003116066819
0.0006515997464
0.0009642999798
0.001171456636
0.001281661823
0.001331913771
0.00135233947
0.001359491629
0.001359956701
0.001353487399
0.001333061224
0.001281497655
0.001168259076
0.0009570968106
0.0006423266291
0.0003049700974
8.141370343e-05
5.620148484e-06
5.649120536e-06
8.406400279e-05
0.0003166593025
0.0006784951392
0.001033360038
0.001285178205
0.001427585744
0.001495741448
0.001524294854
0.001534201179
0.001534314529
0.001524293159
0.001494778574
0.001424172375
0.001277728402
0.001021784099
0.000666129219
0.0003086996686
8.143189062e-05
5.62140735e-06
5.65288474e-06
8.42483449e-05
0.0003185998035
0.000689078288
0.001063059369
0.001337763442
0.001498302149
0.001577259723
0.001610955468
0.001622631228
0.001622446247
0.001609982459
0.001574518945
0.001492170882
0.001326781696
0.001047819982
0.0006739468252
0.0003092621653
8.120595617e-05
5.620954942e-06
5.657274612e-06
8.441601996e-05
0.000319644243
0.0006935052421
0.001075149728
0.001359708668
0.001528561919
0.001612710078
0.001648949253
0.001661487966
0.001661085964
0.001647247523
0.001608581955
0.001520197512
0.001345630408
0.001056409571
0.0006754137938
0.0003086321802
8.084094907e-05
5.619820564e-06
5.66295144e-06
8.461660752e-05
0.0003205496367
0.0006959462377
0.001080313289
0.00136824948
0.001539991497
0.001625970334
0.001663099927
0.001675898402
0.001675323561
0.001660797292
0.00162063093
0.001529534673
0.001351034639
0.001057712851
0.0006742850311
0.000307389509
8.034098084e-05
5.618209356e-06
5.670500343e-06
8.487607983e-05
0.0003215857536
0.0006978983861
0.001082738445
0.001370689028
0.001542254866
0.001628046324
0.001665020228
0.001677671251
0.001676928856
0.001662127002
0.001621471748
0.001529551065
0.00134990056
0.001055472829
0.0006717154958
0.000305617014
7.967185243e-05
5.616074655e-06
5.680724269e-06
8.522019576e-05
0.0003228635019
0.0006996462024
0.001082976651
0.001367890329
0.001536443592
0.001620138448
0.00165592434
0.001667980411
0.001667001469
0.001652240969
0.001611985059
0.001520964773
0.001342716616
0.00104988344
0.0006676297546
0.000303174087
7.876896577e-05
5.613249385e-06
5.694903722e-06
8.568293371e-05
0.0003243844525
0.0007003947754
0.001078194121
0.001354432554
0.00151511037
0.001593598903
0.00162656356
0.001637315758
0.001635956153
0.001621686777
0.001583234612
0.001496017179
0.00132375842
0.00103774849
0.0006608186303
0.0002996954116
7.752202162e-05
5.609442277e-06
5.715240118e-06
8.630760534e-05
0.0003258434824
0.0006971094921
0.001059277189
0.001314766353
0.001458210058
0.001525954337
0.00155333923
0.001561621907
0.001559631583
0.001546582833
0.00151236573
0.001434337996
0.00127732414
0.001009838318
0.0006477964445
0.0002943417106
7.573256205e-05
5.604147544e-06
5.745816633e-06
8.71260398e-05
0.0003258144415
0.0006807527367
0.001004405811
0.001216487006
0.001327652247
0.001376801195
0.001395081635
0.001399530514
0.001396659861
0.001385755941
0.001359031432
0.001298110871
0.001171653431
0.000945110166
0.0006196196201
0.0002850273466
7.301062026e-05
5.596838181e-06
5.794834069e-06
8.803641522e-05
0.0003193914226
0.0006283789841
0.0008716776487
0.001010056367
0.001074016159
0.001098815812
0.001106197832
0.001106435437
0.001102847293
0.001094697287
0.001077647578
0.001040321036
0.0009603854113
0.0008053662731
0.0005557930206
0.0002663948657
6.853381169e-05
5.592534278e-06
5.882027874e-06
8.82076752e-05
0.0002899834953
0.0004943779238
0.0006131286336
0.0006654952498
0.0006846180473
0.0006897424849
0.0006896825651
0.0006877018834
0.000684528195
0.0006790398909
0.0006702652548
0.0006541086892
0.0006209636265
0.0005521446111
0.0004209812443
0.0002259229595
6.110862864e-05
5.741760174e-06
6.12148088e-06
8.332442958e-05
0.000196328605
0.0002551701307
0.0002751192967
0.0002806624481
0.0002814465156
0.0002807213827
0.0002796194727
0.000278435405
0.0002770613357
0.0002746650766
0.0002714788682
0.0002669190394
0.0002592731645
0.0002446251679
0.000213902344
0.0001470385454
5.189840219e-05
8.650180403e-06
1.004951167e-05
5.806313544e-05
7.132622881e-05
7.471574744e-05
7.555630407e-05
7.564389757e-05
7.553207082e-05
7.538374961e-05
7.523768481e-05
7.509647584e-05
7.496536234e-05
7.501028863e-05
7.510402489e-05
7.518046785e-05
7.518952048e-05
7.495375611e-05
7.389111817e-05
7.050912408e-05
5.961354547e-05
3.971496562e-05
3.335783875e-05
4.562547604e-05
4.227694786e-05
4.113220372e-05
4.112238158e-05
4.119849086e-05
4.125921091e-05
4.130637991e-05
4.134547819e-05
4.138165087e-05
4.142183454e-05
4.143733576e-05
4.144600174e-05
4.145979049e-05
4.148311331e-05
4.152397452e-05
4.160589882e-05
4.190210238e-05
4.34156699e-05
4.736751568e-05
)
;

boundaryField
{
    movingWall
    {
        type            compressible::alphatWallFunction;
        Prt             0.85;
        value           nonuniform List<scalar> 
20
(
0
1.226687206e-06
6.512155958e-07
4.354782548e-07
4.102675627e-07
4.088276535e-07
4.090498026e-07
4.10005103e-07
4.121844223e-07
4.160563644e-07
4.232366398e-07
4.275948259e-07
4.325348107e-07
4.415181572e-07
4.55786562e-07
4.779938202e-07
5.147488977e-07
5.818335902e-07
7.645372603e-07
2.093319627e-06
)
;
    }
    fixedWalls
    {
        type            compressible::alphatWallFunction;
        Prt             0.85;
        value           nonuniform List<scalar> 
60
(
0
0
0
0
0
0
0
0
0
0
0
0
0
0
0
0
0
0
0
0
0
0
0
0
0
0
0
0
0
0
0
0
0
0
0
0
0
0
0
2.093319627e-06
0
0
0
0
0
0
0
0
0
0
0
0
0
0
0
0
0
0
0
0
)
;
    }
    frontAndBack
    {
        type            empty;
    }
}


// ************************************************************************* //
