/*--------------------------------*- C++ -*----------------------------------*\
  =========                 |
  \\      /  F ield         | OpenFOAM: The Open Source CFD Toolbox
   \\    /   O peration     | Website:  https://openfoam.org
    \\  /    A nd           | Version:  dev
     \\/     M anipulation  |
\*---------------------------------------------------------------------------*/
FoamFile
{
    format      ascii;
    class       volScalarField;
    location    "0.1";
    object      k;
}
// * * * * * * * * * * * * * * * * * * * * * * * * * * * * * * * * * * * * * //

dimensions      [0 2 -2 0 0 0 0];

internalField   nonuniform List<scalar> 
400
(
0.0006149087758
0.0006729419862
0.0007105924583
0.0007254299869
0.0007301375922
0.000731534966
0.0007320004136
0.0007322227563
0.0007323855218
0.0007325343046
0.0007327897452
0.0007331650107
0.0007335042509
0.0007337381648
0.0007336500709
0.0007324742173
0.000727699667
0.0007123502509
0.0006737625461
0.0006149074064
0.0006738477291
0.001746382789
0.00210182407
0.002221976473
0.00226273842
0.002276415972
0.002281467982
0.002283942213
0.002285691451
0.00228721222
0.002288366041
0.002289091483
0.002289472767
0.002288899337
0.002285303283
0.002272248541
0.002230726839
0.002107822877
0.001745857689
0.0006729223135
0.0007126641129
0.002108531442
0.002594044598
0.002752401214
0.002812015888
0.002835824289
0.00284543545
0.002849417687
0.002851231836
0.002852199223
0.002852700139
0.002852710499
0.002851781063
0.002848490686
0.002839220482
0.002815178681
0.002754429624
0.002593230873
0.002100404288
0.0007104904002
0.0007283826252
0.002232059303
0.002755307606
0.002920297737
0.002983853858
0.00301160752
0.003024182783
0.003029846675
0.003032355231
0.00303340425
0.003033629621
0.003033002814
0.003030833551
0.003025346313
0.003012679961
0.002984408054
0.002919540823
0.002751255972
0.002219227576
0.0007251864262
0.0007336309722
0.002274518617
0.002816447067
0.002985238449
0.003050235852
0.003079578824
0.003093717862
0.003100534432
0.003103685747
0.0031049467
0.003105047337
0.003103956291
0.003100899715
0.003094035642
0.003079618067
0.003049594832
0.002983043709
0.00281032807
0.002258219917
0.0007297140751
0.0007353959543
0.002288805856
0.00284114347
0.003013861364
0.003080438407
0.003110869315
0.003125970241
0.003133543293
0.003137167131
0.003138616487
0.003138650435
0.003137235773
0.003133574951
0.003125828808
0.003110325308
0.003079059364
0.003010645165
0.002833372242
0.00226962208
0.0007308912491
0.0007362205422
0.002293947847
0.00285131837
0.003027118794
0.003095298749
0.003126706977
0.003142526467
0.003150629226
0.003154586735
0.003156175556
0.00315616745
0.003154526915
0.003150443745
0.003142073228
0.00312573823
0.003093328148
0.003023002385
0.00284199133
0.002271816297
0.0007310886898
0.0007369002581
0.002296427697
0.002855772138
0.003033438848
0.00310286111
0.003135066668
0.003151428951
0.003159903001
0.003164085561
0.003165766637
0.003165728936
0.003163932638
0.003159553667
0.003150726073
0.003133730546
0.003100336096
0.003028413243
0.002844745646
0.002270750242
0.0007309865765
0.0007376923421
0.002298378719
0.002858164736
0.003036716485
0.003106902853
0.003139642635
0.003156360691
0.003165062966
0.003169375171
0.003171104495
0.003171043925
0.003169147793
0.003164575901
0.003155433828
0.003137952345
0.003103802837
0.003030676908
0.00284509701
0.002268120127
0.0007307563018
0.0007387152847
0.002300550473
0.002860015705
0.003038815575
0.003109350402
0.003142351939
0.003159232444
0.003168023584
0.003172375193
0.003174110303
0.003174030502
0.003172082876
0.003167409735
0.003158085461
0.003140289462
0.003105604708
0.003031562028
0.002844355854
0.002264262603
0.0007304308795
0.000740073697
0.002303303203
0.002861982514
0.0030406107
0.003111159556
0.003144167753
0.003161018396
0.00316975898
0.003174059916
0.003175757641
0.003175659786
0.003173705135
0.003169017654
0.003159637427
0.00314168652
0.00310664683
0.003031839128
0.002842947871
0.002258986736
0.000729998415
0.0007419094831
0.002306939077
0.002864388239
0.003042468267
0.003112713448
0.003145471085
0.003162091858
0.0031706351
0.003174789976
0.0031764039
0.003176287007
0.003174368635
0.003169753274
0.003160443389
0.003142493366
0.003107254075
0.003031751838
0.002840882118
0.00225176124
0.0007294235482
0.0007444468757
0.002311822342
0.002867385823
0.003044425133
0.003114002197
0.003146230326
0.003162406191
0.003170593988
0.003174500422
0.003175979995
0.003175842188
0.003174007104
0.003169558239
0.003160452632
0.00314265677
0.00310735365
0.003031165954
0.00283783349
0.002241588967
0.0007286439039
0.000748067434
0.002318406309
0.002870897677
0.003046201663
0.003114719999
0.00314614713
0.003161664784
0.003169332402
0.00317287878
0.003174169583
0.003174008782
0.003172308288
0.003168129747
0.003159372131
0.003141877695
0.003106587687
0.003029574556
0.002832950372
0.002226539841
0.0007275488869
0.0007534674274
0.002327111455
0.002874391681
0.003047272277
0.003114509189
0.003144946894
0.003159591784
0.00316656089
0.003169634108
0.003170685597
0.003170506298
0.003169005108
0.003165227481
0.003156997611
0.00313995701
0.003104631301
0.003026209245
0.002824451067
0.002202552095
0.0007259997572
0.0007620021219
0.002337945819
0.002877107276
0.003047757295
0.003113942641
0.0031432639
0.003156787309
0.003162850302
0.003165332891
0.003166102444
0.003165926541
0.003164742566
0.003161590266
0.003154220473
0.003137973698
0.003102611123
0.003021611384
0.002810155663
0.002160989115
0.0007253602059
0.0007768532967
0.00235248416
0.002883305573
0.003053936203
0.003119708254
0.003147617737
0.003159598922
0.003164520875
0.00316634701
0.003166845898
0.003166752687
0.003166199194
0.003164226695
0.003158617129
0.003144465139
0.003110380524
0.003026676129
0.002800700411
0.002113082359
0.0007620930428
0.0008168471604
0.00242370722
0.002951969575
0.003125815432
0.003190921578
0.003216482101
0.003226693651
0.003230819989
0.003232518519
0.003233242222
0.003233811581
0.003235747156
0.003237764629
0.003237906376
0.00323212181
0.003209793682
0.003140886605
0.002932011772
0.002299527827
0.001378881541
0.001432642626
0.003452331162
0.003896550778
0.004037343979
0.004095203222
0.00412157532
0.00413524234
0.004143494005
0.004149170638
0.004153615613
0.004158913658
0.004176977142
0.004206097607
0.00424045651
0.004282633815
0.004338699341
0.00442106208
0.004576172081
0.005034767711
0.006738850462
0.02064935553
0.02004383343
0.01930314183
0.0188603214
0.01878494623
0.01877596951
0.01877495858
0.01877604143
0.01878025378
0.0187883993
0.01880469294
0.01881696546
0.01882726132
0.01884653198
0.01887780218
0.01892691337
0.01900859884
0.01915648648
0.01960370911
0.0199844195
)
;

boundaryField
{
    movingWall
    {
        type            kqRWallFunction;
        value           nonuniform List<scalar> 
20
(
0.02064935553
0.02004383343
0.01930314183
0.0188603214
0.01878494623
0.01877596951
0.01877495858
0.01877604143
0.01878025378
0.0187883993
0.01880469294
0.01881696546
0.01882726132
0.01884653198
0.01887780218
0.01892691337
0.01900859884
0.01915648648
0.01960370911
0.0199844195
)
;
    }
    fixedWalls
    {
        type            kqRWallFunction;
        value           nonuniform List<scalar> 
60
(
0.0006149087758
0.0006738477291
0.0007126641129
0.0007283826252
0.0007336309722
0.0007353959543
0.0007362205422
0.0007369002581
0.0007376923421
0.0007387152847
0.000740073697
0.0007419094831
0.0007444468757
0.000748067434
0.0007534674274
0.0007620021219
0.0007768532967
0.0008168471604
0.001432642626
0.02064935553
0.0006149074064
0.0006729223135
0.0007104904002
0.0007251864262
0.0007297140751
0.0007308912491
0.0007310886898
0.0007309865765
0.0007307563018
0.0007304308795
0.000729998415
0.0007294235482
0.0007286439039
0.0007275488869
0.0007259997572
0.0007253602059
0.0007620930428
0.001378881541
0.006738850462
0.0199844195
0.0006149087758
0.0006729419862
0.0007105924583
0.0007254299869
0.0007301375922
0.000731534966
0.0007320004136
0.0007322227563
0.0007323855218
0.0007325343046
0.0007327897452
0.0007331650107
0.0007335042509
0.0007337381648
0.0007336500709
0.0007324742173
0.000727699667
0.0007123502509
0.0006737625461
0.0006149074064
)
;
    }
    frontAndBack
    {
        type            empty;
    }
}


// ************************************************************************* //
