/*--------------------------------*- C++ -*----------------------------------*\
  =========                 |
  \\      /  F ield         | OpenFOAM: The Open Source CFD Toolbox
   \\    /   O peration     | Website:  https://openfoam.org
    \\  /    A nd           | Version:  dev
     \\/     M anipulation  |
\*---------------------------------------------------------------------------*/
FoamFile
{
    format      ascii;
    class       volScalarField;
    location    "0.1";
    object      nut;
}
// * * * * * * * * * * * * * * * * * * * * * * * * * * * * * * * * * * * * * //

dimensions      [0 2 -1 0 0 0 0];

internalField   nonuniform List<scalar> 
400
(
3.024996739e-06
3.310486683e-06
3.495705304e-06
3.568697393e-06
3.591856099e-06
3.598730374e-06
3.60102011e-06
3.602113911e-06
3.602914626e-06
3.603646554e-06
3.604903177e-06
3.60674927e-06
3.608418139e-06
3.609568863e-06
3.609135493e-06
3.603350973e-06
3.579862939e-06
3.504352659e-06
3.314523393e-06
3.024990028e-06
3.314942416e-06
2.898373636e-05
4.769181447e-05
5.495873059e-05
5.738124809e-05
5.817833424e-05
5.850097895e-05
5.869954746e-05
5.887080927e-05
5.903497372e-05
5.91548676e-05
5.922138648e-05
5.926946839e-05
5.926779916e-05
5.90999889e-05
5.83749008e-05
5.586703105e-05
4.826022778e-05
2.895995084e-05
3.310389933e-06
3.505896649e-06
4.830606464e-05
0.0001255915056
0.000180732204
0.0002064023662
0.0002164399186
0.0002201766851
0.0002216834453
0.0002224588178
0.0002229926074
0.0002233633307
0.0002235475116
0.0002234382473
0.0002224759322
0.0002190216203
0.000208755937
0.0001820656113
0.0001253812146
4.756706347e-05
3.495203268e-06
3.583222669e-06
5.597193632e-05
0.000182438874
0.000318855258
0.0004077688859
0.0004520292681
0.0004711480654
0.000478888073
0.0004820823459
0.0004835462088
0.0004841640547
0.0004838836042
0.0004816842149
0.0004745124222
0.0004551472844
0.0004094100541
0.000318029965
0.0001801398044
5.466902985e-05
3.567499246e-06
3.609041509e-06
5.856357813e-05
0.0002094354297
0.0004106443263
0.0005748629621
0.0006735904676
0.0007227953895
0.0007445332635
0.0007534552969
0.0007568643632
0.0007574966998
0.0007552204192
0.000747020721
0.0007251595624
0.000674509529
0.0005730055974
0.0004061768562
0.0002052327854
5.688351833e-05
3.589772671e-06
3.617724202e-06
5.939383132e-05
0.0002201309286
0.000457108573
0.0006769485115
0.0008262582782
0.0009086081817
0.0009478204959
0.0009645063065
0.000970579679
0.0009709837611
0.0009654859024
0.0009487588215
0.0009083634159
0.0008234078367
0.0006707880785
0.0004493209618
0.0002145377044
5.742409109e-05
3.595563691e-06
3.621780696e-06
5.96911731e-05
0.0002241224558
0.0004774758614
0.0007286141052
0.0009116766188
0.001019223354
0.001073073133
0.001096719225
0.001105244535
0.001105328647
0.001096647219
0.00107208522
0.001016041112
0.0009050444049
0.0007186317969
0.0004670098167
0.0002173790078
5.743026258e-05
3.596534989e-06
3.625124502e-06
5.985146855e-05
0.0002257359553
0.0004858885263
0.0007518689414
0.0009530194701
0.001075427161
0.00113854758
0.001166822645
0.001177002352
0.001176795595
0.001165804463
0.001135845168
0.001069676308
0.0009431418979
0.000738619333
0.0004730125052
0.0002178041625
5.723599967e-05
3.596032655e-06
3.629021094e-06
5.999704387e-05
0.0002266324054
0.00048958314
0.000761815962
0.0009711471083
0.001100719622
0.001168529613
0.001199215521
0.001210242486
0.00120980995
0.001197446572
0.001164428616
0.001092794137
0.000958380148
0.0007454350538
0.0004741439609
0.0002172664736
5.692260662e-05
3.594899841e-06
3.634053375e-06
6.017018687e-05
0.0002274105343
0.0004916807042
0.000766252564
0.0009785350235
0.001110724557
0.001180270987
0.001211840214
0.001223131338
0.001222511597
0.001209432392
0.001174925834
0.001100750611
0.0009628528855
0.0007464467617
0.0004731706091
0.0002162102352
5.649259483e-05
3.593298958e-06
3.640735973e-06
6.039343968e-05
0.0002282939062
0.0004933536983
0.0007683713014
0.0009807118535
0.001112770562
0.001182149833
0.001213563208
0.00122469697
0.001223895932
0.001210530929
0.001175548661
0.001100623789
0.0009617468414
0.0007444595765
0.0004709693991
0.0002146982367
5.59168516e-05
3.591171491e-06
3.649766973e-06
6.068868532e-05
0.000229374963
0.00049482786
0.0007685855386
0.0009783095678
0.001107647312
0.001175026179
0.001205243189
0.001215755203
0.001214708439
0.001201404286
0.001166861182
0.001092865608
0.0009553648334
0.0007395833317
0.000467463451
0.000212610299
5.514046721e-05
3.588343488e-06
3.662249469e-06
6.108418269e-05
0.0002306520205
0.0004954592841
0.0007646543662
0.0009670351424
0.001089421407
0.00115196991
0.001179439267
0.001188642536
0.001187226699
0.001174454623
0.00114171702
0.001071317047
0.0009391942497
0.0007292963342
0.0004616763445
0.0002096388231
5.406975696e-05
3.584508101e-06
3.680060514e-06
6.161547715e-05
0.0002318763361
0.0004928891934
0.0007496050742
0.0009350643626
0.001042863749
0.001095896652
0.001118200275
0.001125059278
0.001123078783
0.001111544553
0.001082797459
0.001020590604
0.0009014033007
0.0007066201228
0.0004509123574
0.000205095618
5.253659086e-05
3.579121266e-06
3.70662535e-06
6.230935015e-05
0.0002319300025
0.0004803271939
0.0007074133178
0.0008589253015
0.0009406699803
0.0009780803808
0.0009924264706
0.0009958680425
0.0009931689479
0.0009836842358
0.0009615968481
0.0009138230461
0.0008192720944
0.0006563512954
0.0004285665488
0.0001973479159
5.021649796e-05
3.571500462e-06
3.748611103e-06
6.309572637e-05
0.0002271336449
0.0004410880738
0.0006085244766
0.0007047515336
0.0007501794613
0.000768209859
0.0007735848951
0.0007735197988
0.0007703327978
0.0007633421395
0.0007493907036
0.0007205182299
0.0006617467609
0.0005521797206
0.000380165185
0.0001824518275
4.646329474e-05
3.568354266e-06
3.821670287e-06
6.334193209e-05
0.0002051651629
0.0003430788637
0.0004213467828
0.0004558204426
0.000468454396
0.0004717062703
0.0004713670822
0.0004696319177
0.0004669497057
0.0004623000371
0.0004550184492
0.0004423919518
0.0004181086144
0.0003702835274
0.0002821287713
0.000152025366
4.060513357e-05
3.749058698e-06
4.018416989e-06
5.971221555e-05
0.000136788101
0.0001742125501
0.0001859058103
0.0001889611207
0.0001891898738
0.0001884856824
0.0001875578077
0.0001865829217
0.0001854559168
0.0001835015966
0.0001808371247
0.0001771659379
0.0001713627474
0.0001609679547
0.0001405913817
9.78417022e-05
3.48324435e-05
6.783302853e-06
7.047775454e-06
4.137444436e-05
5.019184725e-05
5.252686749e-05
5.309992907e-05
5.313447174e-05
5.30308215e-05
5.290379809e-05
5.278082914e-05
5.266340492e-05
5.255528657e-05
5.259189843e-05
5.270332416e-05
5.28098245e-05
5.287820706e-05
5.28002573e-05
5.222120156e-05
5.028475287e-05
4.455981555e-05
3.315126322e-05
3.111842644e-05
3.276248215e-05
3.122846285e-05
3.037278754e-05
3.033011395e-05
3.038618481e-05
3.043517307e-05
3.047318983e-05
3.050479779e-05
3.053372381e-05
3.056679056e-05
3.058337401e-05
3.058909988e-05
3.059828037e-05
3.061422064e-05
3.064321052e-05
3.070092178e-05
3.091240733e-05
3.217570571e-05
3.074885681e-05
)
;

boundaryField
{
    movingWall
    {
        type            nutkWallFunction;
        Cmu             0.09;
        kappa           0.41;
        E               9.8;
        value           nonuniform List<scalar> 
20
(
9.288122796e-07
7.320264179e-07
4.865898256e-07
3.372524666e-07
3.116320796e-07
3.085769742e-07
3.082329368e-07
3.086016119e-07
3.100354409e-07
3.128074749e-07
3.183502821e-07
3.225233585e-07
3.260231037e-07
3.325705226e-07
3.43186662e-07
3.598392699e-07
3.874819709e-07
4.373538283e-07
5.868317106e-07
7.125361575e-07
)
;
    }
    fixedWalls
    {
        type            nutkWallFunction;
        Cmu             0.09;
        kappa           0.41;
        E               9.8;
        value           nonuniform List<scalar> 
60
(
0
0
0
0
0
0
0
0
0
0
0
0
0
0
0
0
0
0
0
9.288122796e-07
0
0
0
0
0
0
0
0
0
0
0
0
0
0
0
0
0
0
0
7.125361575e-07
0
0
0
0
0
0
0
0
0
0
0
0
0
0
0
0
0
0
0
0
)
;
    }
    frontAndBack
    {
        type            empty;
    }
}


// ************************************************************************* //
