/*--------------------------------*- C++ -*----------------------------------*\
  =========                 |
  \\      /  F ield         | OpenFOAM: The Open Source CFD Toolbox
   \\    /   O peration     | Website:  https://openfoam.org
    \\  /    A nd           | Version:  dev
     \\/     M anipulation  |
\*---------------------------------------------------------------------------*/
FoamFile
{
    format      ascii;
    class       volScalarField;
    location    "0.1";
    object      omega;
}
// * * * * * * * * * * * * * * * * * * * * * * * * * * * * * * * * * * * * * //

dimensions      [0 0 -1 0 0 0 0];

internalField   nonuniform List<scalar> 
400
(
203.2758475
203.2758475
203.2758475
203.2758474
203.2758474
203.2758473
203.2758472
203.275847
203.2758469
203.2758467
203.2758466
203.2758464
203.2758463
203.2758462
203.275846
203.2758459
203.2758459
203.2758458
203.2758458
203.2758458
203.2758475
60.25388748
44.07096046
40.42990893
39.4334124
39.12824254
38.99880008
38.90902591
38.82554834
38.74334273
38.68432361
38.65312211
38.62819812
38.6196108
38.66842152
38.92509469
39.9292176
43.67618997
60.28524354
203.2758458
203.2758476
43.64941458
20.6546182
15.22916864
13.6239518
13.10213157
12.92341852
12.85354296
12.81689736
12.79055506
12.77156877
12.76109261
12.76317326
12.80359029
12.96319732
13.48550236
15.12877476
20.68277038
44.15669447
203.2758457
203.2758476
39.87818627
15.10263436
9.158693995
7.317512349
6.662417088
6.418752414
6.326836783
6.290118808
6.273245855
6.265705997
6.268042124
6.292158758
6.375694654
6.619132014
7.289532887
9.180080948
15.27289308
40.59387156
203.2758457
203.2758477
38.83845028
13.44780618
7.26964494
5.30602257
4.571885992
4.280212502
4.164400146
4.119269929
4.102381947
4.09909025
4.110000488
4.151022359
4.266696328
4.565714693
5.32210304
7.344199119
13.69336807
39.69901973
203.2758456
203.2758478
38.53608709
12.90660739
6.593316209
4.550476667
3.765008349
3.440394115
3.306051417
3.25261443
3.233754585
3.232443796
3.249385377
3.302815088
3.441165455
3.777381231
4.590211816
6.700433366
13.20687312
39.52386597
203.2758454
203.275848
38.43026913
12.72214495
6.339836292
4.248200422
3.429622864
3.083255948
2.936080618
2.876385008
2.855635524
2.855410886
2.876519323
2.938613167
3.092466625
3.453684939
4.304468799
6.473102444
13.07389964
39.55782535
203.2758452
203.2758482
38.36877779
12.65094049
6.243075692
4.126864323
3.2896145
2.930397396
2.775380718
2.711710794
2.689685905
2.690126433
2.713947954
2.781676373
2.945494865
3.322650126
4.197474881
6.40239573
13.06102516
39.67346172
203.275845
203.2758485
38.30819939
12.61145656
6.202657397
4.078285318
3.232921776
2.867542859
2.708586014
2.642873708
2.620222418
2.621109147
2.646588053
2.717707086
2.887491542
3.274225109
4.163746823
6.391891825
13.09496565
39.84568279
203.2758447
203.2758489
38.23405897
12.57644337
6.180465389
4.057866228
3.211282032
2.844298727
2.684149335
2.617816405
2.595069069
2.59631934
2.622786438
2.695838021
2.869029032
3.261442646
4.160517356
6.4069111
13.15550974
40.08069746
203.2758443
203.2758493
38.13830136
12.53639469
6.16314565
4.049031439
3.206005659
2.840673993
2.681351291
2.615487924
2.593096676
2.594713899
2.621746425
2.695777519
2.870769702
3.266646049
4.173022858
6.437443989
13.2415986
40.39903305
203.2758438
203.2758498
38.0126718
12.48779815
6.148538739
4.049924558
3.215210388
2.854782226
2.698352732
2.634148863
2.612700231
2.614855471
2.642215175
2.716478466
2.891886585
3.289312371
4.201357632
6.485537707
13.36192146
40.8368183
203.2758432
203.2758505
37.84649708
12.43165274
6.144652508
4.072431068
3.25348086
2.902830964
2.752323617
2.691533606
2.671938702
2.675009069
2.702537025
2.77613295
2.950062861
3.346120114
4.260755888
6.565564795
13.53677457
41.45735238
203.2758424
203.2758513
37.62701217
12.38115853
6.180297121
4.155147966
3.36463163
3.031714149
2.891999348
2.837487031
2.821335412
2.826167522
2.853964136
2.925874753
3.095631215
3.485540481
4.396404215
6.718765867
13.8128274
42.38074462
203.2758415
203.2758524
37.34770864
12.39335855
6.344159388
4.40267254
3.661490572
3.358873835
3.237526232
3.193822617
3.183841093
3.192313155
3.221567443
3.291636706
3.454714372
3.832618042
4.730136624
7.061235305
14.31203899
43.86112501
203.2758402
203.2758537
37.05394887
12.66702376
6.909634325
5.117201956
4.460102249
4.208042837
4.117169632
4.091771842
4.09311106
4.109816627
4.14590313
4.218881087
4.377710851
4.741955509
5.618842937
7.948153864
15.40217876
46.50959702
203.2758386
203.2758554
37.13944432
14.05358265
8.901557415
7.404134506
6.905389587
6.744731074
6.708668241
6.717369815
6.743250997
6.781785378
6.848797186
6.954062414
7.139861194
7.520689675
8.399997012
10.72799529
18.42258621
52.03978348
203.2758365
203.2758578
40.58980558
21.58060207
17.94253876
17.16418423
17.02192541
17.05531901
17.14093053
17.23478515
17.32871473
17.43709037
17.63334606
17.90431381
18.27612245
18.86128613
19.94057568
22.34053445
29.9668925
66.01683934
203.2758335
203.2758614
83.44114864
77.63314146
76.86245481
77.12257424
77.56876441
77.97809317
78.32129554
78.61131979
78.87100386
79.1340687
79.42244465
79.80706482
80.2967355
80.99052622
82.17193557
84.66029022
91.005162
112.9889711
203.2758275
203.2758604
255.4026609
247.3048403
244.2794873
243.9263235
243.9061533
243.9092633
243.9226425
243.9531668
244.007401
244.1079812
244.1690325
244.238237
244.3640938
244.5640156
244.8752235
245.3904363
246.3312245
248.8962493
267.6719914
)
;

boundaryField
{
    movingWall
    {
        beta1           0.075;
        blended         0;
        type            omegaWallFunction;
        value           nonuniform List<scalar> 
20
(
203.2758604
255.4026609
247.3048403
244.2794873
243.9263235
243.9061533
243.9092633
243.9226425
243.9531668
244.007401
244.1079812
244.1690325
244.238237
244.3640938
244.5640156
244.8752235
245.3904363
246.3312245
248.8962493
267.6719914
)
;
    }
    fixedWalls
    {
        beta1           0.075;
        blended         0;
        type            omegaWallFunction;
        value           nonuniform List<scalar> 
60
(
203.2758475
203.2758475
203.2758476
203.2758476
203.2758477
203.2758478
203.275848
203.2758482
203.2758485
203.2758489
203.2758493
203.2758498
203.2758505
203.2758513
203.2758524
203.2758537
203.2758554
203.2758578
203.2758614
203.2758604
203.2758458
203.2758458
203.2758457
203.2758457
203.2758456
203.2758454
203.2758452
203.275845
203.2758447
203.2758443
203.2758438
203.2758432
203.2758424
203.2758415
203.2758402
203.2758386
203.2758365
203.2758335
203.2758275
267.6719914
203.2758475
203.2758475
203.2758475
203.2758474
203.2758474
203.2758473
203.2758472
203.275847
203.2758469
203.2758467
203.2758466
203.2758464
203.2758463
203.2758462
203.275846
203.2758459
203.2758459
203.2758458
203.2758458
203.2758458
)
;
    }
    frontAndBack
    {
        type            empty;
    }
}


// ************************************************************************* //
