/*--------------------------------*- C++ -*----------------------------------*\
  =========                 |
  \\      /  F ield         | OpenFOAM: The Open Source CFD Toolbox
   \\    /   O peration     | Website:  https://openfoam.org
    \\  /    A nd           | Version:  dev
     \\/     M anipulation  |
\*---------------------------------------------------------------------------*/
FoamFile
{
    format      ascii;
    class       volScalarField;
    location    "0.1";
    object      p;
}
// * * * * * * * * * * * * * * * * * * * * * * * * * * * * * * * * * * * * * //

dimensions      [1 -1 -2 0 0 0 0];

internalField   nonuniform List<scalar> 
400
(
99999.99943
99999.99944
99999.99946
99999.99949
99999.99954
99999.9996
99999.99968
99999.99977
99999.99987
99999.99998
100000.0001
100000.0002
100000.0003
100000.0004
100000.0005
100000.0005
100000.0006
100000.0006
100000.0006
100000.0007
99999.99943
99999.99943
99999.99945
99999.99949
99999.99953
99999.9996
99999.99968
99999.99977
99999.99987
99999.99998
100000.0001
100000.0002
100000.0003
100000.0004
100000.0005
100000.0005
100000.0006
100000.0006
100000.0007
100000.0007
99999.99941
99999.99941
99999.99944
99999.99947
99999.99952
99999.99959
99999.99967
99999.99976
99999.99986
99999.99997
100000.0001
100000.0002
100000.0003
100000.0004
100000.0005
100000.0006
100000.0006
100000.0007
100000.0007
100000.0007
99999.99937
99999.99938
99999.9994
99999.99944
99999.99949
99999.99957
99999.99965
99999.99975
99999.99986
99999.99997
100000.0001
100000.0002
100000.0003
100000.0004
100000.0005
100000.0006
100000.0006
100000.0007
100000.0007
100000.0007
99999.99931
99999.99932
99999.99934
99999.99938
99999.99944
99999.99952
99999.99962
99999.99972
99999.99984
99999.99996
100000.0001
100000.0002
100000.0003
100000.0004
100000.0005
100000.0006
100000.0007
100000.0007
100000.0008
100000.0008
99999.99922
99999.99923
99999.99926
99999.9993
99999.99936
99999.99945
99999.99956
99999.99968
99999.99981
99999.99995
100000.0001
100000.0002
100000.0004
100000.0005
100000.0006
100000.0007
100000.0008
100000.0008
100000.0009
100000.0009
99999.9991
99999.99911
99999.99914
99999.99918
99999.99925
99999.99935
99999.99948
99999.99962
99999.99977
99999.99994
100000.0001
100000.0003
100000.0004
100000.0006
100000.0007
100000.0008
100000.0009
100000.001
100000.001
100000.001
99999.99894
99999.99896
99999.99899
99999.99904
99999.99911
99999.99923
99999.99937
99999.99954
99999.99972
99999.99991
100000.0001
100000.0003
100000.0005
100000.0007
100000.0008
100000.001
100000.0011
100000.0011
100000.0012
100000.0012
99999.99875
99999.99877
99999.9988
99999.99886
99999.99894
99999.99907
99999.99924
99999.99944
99999.99966
99999.99989
100000.0001
100000.0003
100000.0006
100000.0008
100000.001
100000.0011
100000.0012
100000.0013
100000.0014
100000.0014
99999.9985
99999.99853
99999.99857
99999.99863
99999.99873
99999.99889
99999.99909
99999.99933
99999.99958
99999.99985
100000.0001
100000.0004
100000.0007
100000.0009
100000.0012
100000.0013
100000.0015
100000.0016
100000.0016
100000.0017
99999.9982
99999.99823
99999.99828
99999.99836
99999.99848
99999.99867
99999.99892
99999.9992
99999.9995
99999.99981
100000.0001
100000.0005
100000.0008
100000.0011
100000.0014
100000.0016
100000.0018
100000.0019
100000.002
100000.002
99999.99783
99999.99787
99999.99793
99999.99803
99999.99819
99999.99842
99999.99871
99999.99904
99999.9994
99999.99976
100000.0001
100000.0005
100000.0009
100000.0012
100000.0016
100000.0019
100000.0021
100000.0022
100000.0024
100000.0024
99999.99737
99999.99742
99999.9975
99999.99763
99999.99784
99999.99813
99999.99848
99999.99887
99999.99928
99999.9997
100000.0001
100000.0006
100000.001
100000.0014
100000.0018
100000.0022
100000.0025
100000.0027
100000.0029
100000.0029
99999.99681
99999.99687
99999.99698
99999.99716
99999.99743
99999.99779
99999.99822
99999.99868
99999.99915
99999.99964
100000.0001
100000.0006
100000.0011
100000.0016
100000.0021
100000.0026
100000.003
100000.0033
100000.0035
100000.0036
99999.9961
99999.99619
99999.99635
99999.9966
99999.99697
99999.99743
99999.99794
99999.99848
99999.99902
99999.99956
100000.0001
100000.0007
100000.0012
100000.0018
100000.0024
100000.003
100000.0035
100000.0039
100000.0042
100000.0044
99999.9952
99999.99534
99999.99559
99999.99597
99999.99648
99999.99706
99999.99767
99999.99828
99999.99888
99999.99947
100000.0001
100000.0007
100000.0013
100000.002
100000.0027
100000.0034
100000.0041
100000.0047
100000.0052
100000.0055
99999.994
99999.99428
99999.99471
99999.99531
99999.99602
99999.99674
99999.99743
99999.9981
99999.99875
99999.99939
100000
100000.0007
100000.0014
100000.0021
100000.0029
100000.0037
100000.0046
100000.0055
100000.0063
100000.007
99999.99239
99999.99299
99999.99382
99999.99475
99999.99564
99999.99646
99999.99722
99999.99794
99999.99863
99999.99929
99999.99996
100000.0006
100000.0013
100000.0021
100000.0029
100000.0038
100000.0049
100000.0061
100000.0073
100000.009
99999.98991
99999.9915
99999.99307
99999.99432
99999.99532
99999.99622
99999.99703
99999.99779
99999.99851
99999.99921
99999.99989
100000.0006
100000.0013
100000.0021
100000.0029
100000.0039
100000.005
100000.0063
100000.0079
100000.0125
99999.98933
99999.99216
99999.99308
99999.9941
99999.99513
99999.99607
99999.99692
99999.9977
99999.99844
99999.99915
99999.99985
100000.0006
100000.0013
100000.0021
100000.0029
100000.0039
100000.0051
100000.0067
100000.009
100000.015
)
;

boundaryField
{
    movingWall
    {
        type            zeroGradient;
    }
    fixedWalls
    {
        type            zeroGradient;
    }
    frontAndBack
    {
        type            empty;
    }
}


// ************************************************************************* //
