/*--------------------------------*- C++ -*----------------------------------*\
  =========                 |
  \\      /  F ield         | OpenFOAM: The Open Source CFD Toolbox
   \\    /   O peration     | Website:  https://openfoam.org
    \\  /    A nd           | Version:  dev
     \\/     M anipulation  |
\*---------------------------------------------------------------------------*/
FoamFile
{
    format      ascii;
    class       surfaceScalarField;
    location    "0.1";
    object      phi;
}
// * * * * * * * * * * * * * * * * * * * * * * * * * * * * * * * * * * * * * //

dimensions      [1 0 -1 0 0 0 0];

internalField   nonuniform List<scalar> 
760
(
-1.210873408e-08
1.210872564e-08
-2.57548645e-08
1.364604419e-08
-4.075719436e-08
1.500232345e-08
-5.64080662e-08
1.565087534e-08
-7.148943603e-08
1.508138188e-08
-8.495503891e-08
1.346558853e-08
-9.607335457e-08
1.111830844e-08
-1.043647735e-07
8.291419278e-09
-1.095205949e-07
5.155823167e-09
-1.113765889e-07
1.855989283e-09
-1.098629075e-07
-1.513674681e-09
-1.050112004e-07
-4.851719996e-09
-9.696484977e-08
-8.046363232e-09
-8.600300753e-08
-1.096183065e-08
-7.259019676e-08
-1.341279698e-08
-5.745471154e-08
-1.513547841e-08
-4.165136396e-08
-1.580334042e-08
-2.641212102e-08
-1.523925427e-08
-1.245850085e-08
-1.395359566e-08
-1.245850495e-08
-1.468442474e-08
2.679323776e-08
-2.991516105e-08
2.887677697e-08
-4.595356158e-08
3.104070227e-08
-6.272356863e-08
3.242087328e-08
-7.907723047e-08
3.143502034e-08
-9.378369179e-08
2.817205013e-08
-1.05949225e-07
2.328383764e-08
-1.150142246e-07
1.735641596e-08
-1.206537993e-07
1.079539025e-08
-1.226828318e-07
3.885031589e-09
-1.210366116e-07
-3.159911155e-09
-1.157479272e-07
-1.014039372e-08
-1.069621008e-07
-1.683216906e-08
-9.498283584e-08
-2.294110702e-08
-8.035380439e-08
-2.804180531e-08
-6.39631687e-08
-3.152608129e-08
-4.704171962e-08
-3.272478401e-08
-3.073679332e-08
-3.154413785e-08
-1.512651205e-08
-2.956389363e-08
-2.758497595e-08
-1.816990787e-08
4.496314947e-08
-3.620228429e-08
4.690915851e-08
-5.354053173e-08
4.837893984e-08
-7.05986595e-08
4.947900205e-08
-8.700882774e-08
4.784517645e-08
-1.018954689e-07
4.30586979e-08
-1.143591541e-07
3.574753015e-08
-1.237298865e-07
2.672714827e-08
-1.29591653e-07
1.665716536e-08
-1.3172043e-07
6.013804817e-09
-1.300360742e-07
-4.844266443e-09
-1.245828288e-07
-1.559365076e-08
-1.155501879e-07
-2.586478841e-08
-1.033287157e-07
-3.516256099e-08
-8.856848616e-08
-4.280201567e-08
-7.215119817e-08
-4.794337817e-08
-5.493243433e-08
-4.994355071e-08
-3.726152853e-08
-4.921505091e-08
-1.873166244e-08
-4.809374851e-08
-4.631663069e-08
-2.184827806e-08
6.681139961e-08
-4.349987698e-08
6.856076674e-08
-6.301514544e-08
6.789419967e-08
-8.083375658e-08
6.729761876e-08
-9.725564565e-08
6.426706445e-08
-1.119957683e-07
5.779881352e-08
-1.244112034e-07
4.816298709e-08
-1.338426898e-07
3.615863843e-08
-1.398004841e-07
2.261496493e-08
-1.419987357e-07
8.212061355e-09
-1.403338683e-07
-6.509128769e-09
-1.348712753e-07
-2.105622609e-08
-1.258611651e-07
-3.487489345e-08
-1.137620682e-07
-4.726167484e-08
-9.920324002e-08
-5.73608466e-08
-8.279447293e-08
-6.435213342e-08
-6.478359028e-08
-6.795440477e-08
-4.484034891e-08
-6.915827778e-08
-2.254905329e-08
-7.038503928e-08
-6.886571395e-08
-2.512156077e-08
9.193293481e-08
-5.018336678e-08
9.362257554e-08
-7.236237672e-08
9.007320699e-08
-9.173628601e-08
8.667151822e-08
-1.0883904e-07
8.136982486e-08
-1.237974399e-07
7.275722107e-08
-1.362881946e-07
6.065374886e-08
-1.457919223e-07
4.566238115e-08
-1.51835638e-07
2.865868338e-08
-1.541104734e-07
1.048688296e-08
-1.524988476e-07
-8.120758631e-09
-1.47075238e-07
-2.647981702e-08
-1.381068889e-07
-4.384321643e-08
-1.260264396e-07
-5.934212387e-08
-1.113106969e-07
-7.207658891e-08
-9.423479601e-08
-8.142801037e-08
-7.461925688e-08
-8.756991942e-08
-5.189120417e-08
-9.188633849e-08
-2.601458985e-08
-9.626162151e-08
-9.488031401e-08
-2.833113775e-08
1.202640735e-07
-5.663365672e-08
1.219250792e-07
-8.173869778e-08
1.151782456e-07
-1.033691317e-07
1.083019589e-07
-1.21968857e-07
9.9969552e-08
-1.378199538e-07
8.860832927e-08
-1.508297776e-07
7.366358637e-08
-1.606549041e-07
5.548751532e-08
-1.669106895e-07
3.491448654e-08
-1.693174127e-07
1.289360742e-08
-1.677603838e-07
-9.677784808e-09
-1.62302824e-07
-3.193737507e-08
-1.531731869e-07
-5.297284912e-08
-1.407036338e-07
-7.181168714e-08
-1.251800573e-07
-8.760016672e-08
-1.066290904e-07
-9.997897812e-08
-8.469607884e-08
-1.095029167e-07
-5.888394131e-08
-1.17698468e-07
-2.95168824e-08
-1.256286586e-07
-1.243971614e-07
-3.205365416e-08
1.523177108e-07
-6.395943631e-08
1.538308491e-07
-9.234991013e-08
1.435687097e-07
-1.168022209e-07
1.327542674e-07
-1.375964335e-07
1.207637875e-07
-1.550028028e-07
1.060147236e-07
-1.690439909e-07
8.770478168e-08
-1.79527011e-07
6.597054021e-08
-1.86185951e-07
4.157343421e-08
-1.888077513e-07
1.551541894e-08
-1.87295342e-07
-1.119020649e-08
-1.816835202e-07
-3.754920516e-08
-1.721218003e-07
-6.253457896e-08
-1.588085046e-07
-8.512499013e-08
-1.418596974e-07
-1.045489744e-07
-1.211610176e-07
-1.206776506e-07
-9.633704488e-08
-1.343268878e-07
-6.702222431e-08
-1.470132802e-07
-3.367987725e-08
-1.58970995e-07
-1.580770003e-07
-3.680641826e-08
1.891241146e-07
-7.32192278e-08
1.902436582e-07
-1.05542699e-07
1.758921751e-07
-1.333706702e-07
1.605822376e-07
-1.569032441e-07
1.442963721e-07
-1.763678065e-07
1.254793239e-07
-1.918448994e-07
1.031818906e-07
-2.032669839e-07
7.739262015e-08
-2.104990696e-07
4.880551464e-08
-2.134187997e-07
1.843513204e-08
-2.119576545e-07
-1.265134132e-08
-2.061105058e-07
-4.339636224e-08
-1.959225868e-07
-7.272252134e-08
-1.814431066e-07
-9.960446469e-08
-1.626364971e-07
-1.233555753e-07
-1.392913019e-07
-1.440228302e-07
-1.110196333e-07
-1.625985692e-07
-7.747398192e-08
-1.805589362e-07
-3.908061425e-08
-1.97364361e-07
-1.971576138e-07
-4.305763575e-08
2.321817291e-07
-8.532283777e-08
2.325088312e-07
-1.225148351e-07
2.130842066e-07
-1.543194003e-07
1.923868088e-07
-1.809927041e-07
1.709696817e-07
-2.027966569e-07
1.472832929e-07
-2.199001169e-07
1.202853731e-07
-2.323812188e-07
8.987371508e-08
-2.402619284e-07
5.668622582e-08
-2.435357126e-07
2.170889237e-08
-2.421738294e-07
-1.401321881e-08
-2.361223045e-07
-4.944787272e-08
-2.252979613e-07
-8.3546856e-08
-2.095727516e-07
-1.15329649e-07
-1.887308167e-07
-1.441974817e-07
-1.62413888e-07
-1.70339746e-07
-1.301091719e-07
-1.949032729e-07
-9.130327942e-08
-2.193647977e-07
-4.627867932e-08
-2.423889473e-07
-2.434362981e-07
-5.132836391e-08
2.835100864e-07
-1.011987485e-07
2.823791928e-07
-1.444081135e-07
2.562936018e-07
-1.807849199e-07
2.287636451e-07
-2.108121025e-07
2.009968628e-07
-2.349487114e-07
1.714198873e-07
-2.535726431e-07
1.389093062e-07
-2.669920066e-07
1.032930725e-07
-2.754454661e-07
6.513971476e-08
-2.790811136e-07
2.534454229e-08
-2.779258797e-07
-1.516844989e-08
-2.718679085e-07
-5.550582535e-08
-2.606618523e-07
-9.475289176e-08
-2.439435006e-07
-1.320479953e-07
-2.212246216e-07
-1.66916362e-07
-1.918552844e-07
-1.997090857e-07
-1.54982494e-07
-2.317760619e-07
-1.096709325e-07
-2.646763481e-07
-5.594425613e-08
-2.961156045e-07
-2.993805303e-07
-6.231734578e-08
3.458274477e-07
-1.220062473e-07
3.420680372e-07
-1.725009765e-07
3.067883137e-07
-2.138922443e-07
2.701549333e-07
-2.471565612e-07
2.342611881e-07
-2.732151657e-07
1.974784829e-07
-2.92865872e-07
1.58560012e-07
-3.06793978e-07
1.172211667e-07
-3.155492062e-07
7.389496482e-08
-3.194885118e-07
2.928387967e-08
-3.187165204e-07
-1.59404237e-08
-3.130552998e-07
-6.116705534e-08
-3.020548117e-07
-1.057533873e-07
-2.850274221e-07
-1.490754052e-07
-2.610626801e-07
-1.908811307e-07
-2.289832629e-07
-2.317885256e-07
-1.872573616e-07
-2.735019567e-07
-1.34110307e-07
-3.178233868e-07
-6.903338965e-08
-3.611924949e-07
-3.684139151e-07
-7.707342395e-08
4.229008737e-07
-1.493613116e-07
4.143558962e-07
-2.083604898e-07
3.657874291e-07
-2.547764708e-07
3.165709043e-07
-2.905781564e-07
2.700628801e-07
-3.175670346e-07
2.24467373e-07
-3.372572315e-07
1.7825021e-07
-3.508986816e-07
1.308626381e-07
-3.594604826e-07
8.245675213e-08
-3.635657846e-07
3.338922407e-08
-3.634218738e-07
-1.60843096e-08
-3.587832056e-07
-6.580570979e-08
-3.489593057e-07
-1.155772784e-07
-3.328491543e-07
-1.651855483e-07
-3.089435927e-07
-2.147866891e-07
-2.75227374e-07
-2.65504721e-07
-2.28985435e-07
-3.197438779e-07
-1.668663945e-07
-3.799424422e-07
-8.706386117e-08
-4.409950366e-07
-4.554777971e-07
-9.729602052e-08
5.201968759e-07
-1.856204727e-07
5.026803475e-07
-2.538979522e-07
4.34064893e-07
-3.044297734e-07
3.671026984e-07
-3.411234162e-07
3.067564914e-07
-3.672695467e-07
2.506135026e-07
-3.854378723e-07
1.964185319e-07
-3.976135785e-07
1.430383938e-07
-4.052636605e-07
9.010686558e-08
-4.093129498e-07
3.743855353e-08
-4.100921576e-07
-1.530506628e-08
-4.07303813e-07
-6.859405548e-08
-4.000165161e-07
-1.228645967e-07
-3.866724317e-07
-1.785296432e-07
-3.650284349e-07
-2.364306724e-07
-3.31911117e-07
-2.986220263e-07
-2.827423555e-07
-3.68912654e-07
-2.112915038e-07
-4.513933186e-07
-1.126422999e-07
-5.396442565e-07
-5.681201149e-07
-1.259586641e-07
6.461554668e-07
-2.343104837e-07
6.110322022e-07
-3.113200099e-07
5.110744173e-07
-3.634076577e-07
4.19190335e-07
-3.980119467e-07
3.413607577e-07
-4.20635242e-07
2.732368017e-07
-4.351604892e-07
2.109437866e-07
-4.443684251e-07
1.522463412e-07
-4.502155348e-07
9.595398647e-08
-4.539115965e-07
4.113460478e-08
-4.559193228e-07
-1.329735524e-08
-4.559347383e-07
-6.857864482e-08
-4.528544951e-07
-1.259448413e-07
-4.447301519e-07
-1.866539769e-07
-4.285966057e-07
-2.52564211e-07
-3.999501717e-07
-3.272684708e-07
-3.516545475e-07
-4.172083057e-07
-2.726165122e-07
-5.304313529e-07
-1.506566804e-07
-6.616040989e-07
-7.187767613e-07
-1.687746438e-07
8.149300588e-07
-3.00907813e-07
7.431653405e-07
-3.831673955e-07
5.933339748e-07
-4.316908731e-07
4.677138032e-07
-4.595843541e-07
3.69254252e-07
-4.751064256e-07
2.887588611e-07
-4.834192169e-07
2.192566111e-07
-4.879517514e-07
1.567789028e-07
-4.910080422e-07
9.901033051e-08
-4.939911701e-07
4.411776436e-08
-4.974861387e-07
-9.802371054e-09
-5.012687111e-07
-6.479605248e-08
-5.042322332e-07
-1.229812957e-07
-5.042715555e-07
-1.866146399e-07
-4.979754427e-07
-2.588603335e-07
-4.79731152e-07
-3.455127979e-07
-4.395487743e-07
-4.5739066e-07
-3.592263655e-07
-6.107537528e-07
-2.110143342e-07
-8.098161645e-07
-9.297911264e-07
-2.378976742e-07
1.05282773e-06
-3.947093733e-07
8.999770311e-07
-4.730995957e-07
6.717241735e-07
-5.090474285e-07
5.036616162e-07
-5.235471051e-07
3.837539564e-07
-5.274109841e-07
2.926227753e-07
-5.265098223e-07
2.183554653e-07
-5.244840143e-07
1.547531033e-07
-5.236728403e-07
9.819914185e-08
-5.254890309e-07
4.593394714e-08
-5.30606647e-07
-4.684754733e-09
-5.390238484e-07
-5.637883846e-08
-5.499245164e-07
-1.120806059e-07
-5.615011298e-07
-1.750380306e-07
-5.705620505e-07
-2.49799436e-07
-5.713617517e-07
-3.44713084e-07
-5.518725461e-07
-4.768798183e-07
-4.85594313e-07
-6.770319551e-07
-3.151447192e-07
-9.802657915e-07
-1.244935807e-06
-3.633398166e-07
1.416167511e-06
-5.347956065e-07
1.071432857e-06
-5.867899478e-07
7.237185292e-07
-5.937076659e-07
5.105793106e-07
-5.846308166e-07
3.746770958e-07
-5.705474538e-07
2.785394442e-07
-5.565602685e-07
2.043682864e-07
-5.456149181e-07
1.438077661e-07
-5.39556975e-07
9.214120987e-08
-5.39486875e-07
4.586387223e-08
-5.460310247e-07
1.859429479e-09
-5.596443782e-07
-4.276546282e-08
-5.802034244e-07
-9.152156531e-08
-6.070565136e-07
-1.481849362e-07
-6.386968331e-07
-2.181591013e-07
-6.714223642e-07
-3.119875027e-07
-6.951081201e-07
-4.531940676e-07
-6.780315433e-07
-6.941085539e-07
-5.141446898e-07
-1.144152792e-06
-1.759080423e-06
-6.126927707e-07
2.028860238e-06
-7.475621177e-07
1.206302202e-06
-7.104126466e-07
6.865690857e-07
-6.549148351e-07
4.550815094e-07
-6.053045595e-07
3.25066835e-07
-5.63618176e-07
2.368530436e-07
-5.307537653e-07
1.715038813e-07
-5.073228081e-07
1.203767937e-07
-4.937380051e-07
7.855639663e-08
-4.90333922e-07
4.245980606e-08
-4.972034954e-07
8.729040051e-09
-5.157808628e-07
-2.418808772e-08
-5.468086976e-07
-6.049372734e-08
-5.915629564e-07
-1.034306459e-07
-6.5173177e-07
-1.579902309e-07
-7.289477897e-07
-2.347714665e-07
-8.232790038e-07
-3.588628561e-07
-9.187220839e-07
-5.986654124e-07
-8.820586981e-07
-1.180816112e-06
-2.641139177e-06
-8.724632209e-07
2.901323386e-06
-7.5491341e-07
1.08875242e-06
-4.811124752e-07
4.127681417e-07
-3.19877024e-07
2.938461221e-07
-2.093811787e-07
2.14571011e-07
-1.26238314e-07
1.537101726e-07
-6.471286825e-08
1.099784266e-07
-2.193559398e-08
7.75994911e-08
4.237089948e-09
5.23837095e-08
1.509889293e-08
3.159801572e-08
1.215901404e-08
1.166891974e-08
-5.621645793e-09
-6.407442727e-09
-4.069001231e-08
-2.542533898e-08
-9.599649758e-08
-4.812415062e-08
-1.771043589e-07
-7.688234803e-08
-2.912713197e-07
-1.206045195e-07
-4.474992181e-07
-2.026348703e-07
-6.582413755e-07
-3.879232301e-07
-8.619863571e-07
-9.770711113e-07
-3.503125629e-06
2.901323326e-06
3.990075622e-06
4.402843716e-06
4.696689789e-06
4.911260739e-06
5.064970843e-06
5.1749492e-06
5.25254865e-06
5.304932315e-06
5.336530276e-06
5.348199136e-06
5.341791663e-06
5.316366307e-06
5.268242094e-06
5.191359754e-06
5.070755193e-06
4.868120304e-06
4.480197046e-06
3.503125888e-06
)
;

boundaryField
{
    movingWall
    {
        type            calculated;
        value           uniform 0;
    }
    fixedWalls
    {
        type            calculated;
        value           uniform 0;
    }
    frontAndBack
    {
        type            empty;
        value           nonuniform List<scalar> 0();
    }
}


// ************************************************************************* //
