/*--------------------------------*- C++ -*----------------------------------*\
  =========                 |
  \\      /  F ield         | OpenFOAM: The Open Source CFD Toolbox
   \\    /   O peration     | Website:  https://openfoam.org
    \\  /    A nd           | Version:  dev
     \\/     M anipulation  |
\*---------------------------------------------------------------------------*/
FoamFile
{
    format      ascii;
    class       volScalarField;
    location    "0.1";
    object      rho;
}
// * * * * * * * * * * * * * * * * * * * * * * * * * * * * * * * * * * * * * //

dimensions      [1 -3 0 0 0 0 0];

internalField   nonuniform List<scalar> 
400
(
1.158622644
1.158622644
1.158622645
1.158622645
1.158622645
1.158622646
1.158622646
1.158622647
1.158622648
1.158622649
1.15862265
1.158622651
1.158622651
1.158622652
1.158622653
1.158622653
1.158622654
1.158622654
1.158622654
1.158622654
1.158622644
1.158622644
1.158622645
1.158622645
1.158622645
1.158622646
1.158622646
1.158622647
1.158622648
1.158622649
1.15862265
1.158622651
1.158622651
1.158622652
1.158622653
1.158622653
1.158622654
1.158622654
1.158622654
1.158622654
1.158622644
1.158622644
1.158622644
1.158622645
1.158622645
1.158622646
1.158622646
1.158622647
1.158622648
1.158622649
1.15862265
1.158622651
1.158622651
1.158622652
1.158622653
1.158622654
1.158622654
1.158622654
1.158622655
1.158622655
1.158622644
1.158622644
1.158622644
1.158622644
1.158622645
1.158622646
1.158622646
1.158622647
1.158622648
1.158622649
1.15862265
1.158622651
1.158622652
1.158622652
1.158622653
1.158622654
1.158622654
1.158622655
1.158622655
1.158622655
1.158622643
1.158622643
1.158622644
1.158622644
1.158622644
1.158622645
1.158622646
1.158622647
1.158622648
1.158622649
1.15862265
1.158622651
1.158622652
1.158622653
1.158622653
1.158622654
1.158622655
1.158622655
1.158622655
1.158622656
1.158622643
1.158622643
1.158622643
1.158622643
1.158622644
1.158622644
1.158622645
1.158622646
1.158622648
1.158622649
1.15862265
1.158622651
1.158622652
1.158622653
1.158622654
1.158622655
1.158622656
1.158622656
1.158622656
1.158622656
1.158622642
1.158622642
1.158622642
1.158622642
1.158622643
1.158622644
1.158622645
1.158622646
1.158622647
1.158622648
1.15862265
1.158622651
1.158622653
1.158622654
1.158622655
1.158622656
1.158622657
1.158622657
1.158622657
1.158622657
1.15862264
1.15862264
1.158622641
1.158622641
1.158622641
1.158622642
1.158622644
1.158622645
1.158622647
1.158622648
1.15862265
1.158622652
1.158622653
1.158622655
1.158622656
1.158622657
1.158622658
1.158622658
1.158622659
1.158622659
1.158622639
1.158622639
1.158622639
1.158622639
1.15862264
1.158622641
1.158622643
1.158622644
1.158622646
1.158622648
1.15862265
1.158622652
1.158622654
1.158622656
1.158622657
1.158622659
1.15862266
1.15862266
1.15862266
1.158622661
1.158622637
1.158622637
1.158622637
1.158622637
1.158622638
1.158622639
1.158622641
1.158622643
1.158622645
1.158622648
1.15862265
1.158622652
1.158622655
1.158622657
1.158622659
1.158622661
1.158622662
1.158622662
1.158622663
1.158622663
1.158622634
1.158622634
1.158622634
1.158622635
1.158622636
1.158622638
1.15862264
1.158622642
1.158622645
1.158622647
1.15862265
1.158622653
1.158622656
1.158622658
1.158622661
1.158622663
1.158622664
1.158622665
1.158622665
1.158622666
1.158622631
1.158622631
1.158622631
1.158622632
1.158622633
1.158622635
1.158622638
1.158622641
1.158622644
1.158622647
1.15862265
1.158622653
1.158622657
1.15862266
1.158622663
1.158622665
1.158622667
1.158622668
1.158622669
1.158622669
1.158622627
1.158622627
1.158622628
1.158622629
1.15862263
1.158622633
1.158622636
1.158622639
1.158622643
1.158622646
1.15862265
1.158622654
1.158622658
1.158622661
1.158622665
1.158622668
1.158622671
1.158622672
1.158622673
1.158622673
1.158622623
1.158622623
1.158622623
1.158622624
1.158622627
1.15862263
1.158622633
1.158622638
1.158622642
1.158622646
1.15862265
1.158622654
1.158622659
1.158622663
1.158622668
1.158622672
1.158622675
1.158622677
1.158622678
1.158622679
1.158622617
1.158622617
1.158622618
1.158622619
1.158622622
1.158622626
1.158622631
1.158622636
1.15862264
1.158622645
1.15862265
1.158622655
1.15862266
1.158622665
1.15862267
1.158622675
1.15862268
1.158622683
1.158622685
1.158622686
1.158622609
1.15862261
1.158622611
1.158622614
1.158622618
1.158622623
1.158622629
1.158622634
1.158622639
1.158622644
1.15862265
1.158622655
1.15862266
1.158622666
1.158622673
1.158622679
1.158622685
1.15862269
1.158622693
1.158622695
1.158622599
1.158622601
1.158622603
1.158622608
1.158622614
1.15862262
1.158622627
1.158622633
1.158622638
1.158622644
1.158622649
1.158622655
1.158622661
1.158622667
1.158622674
1.158622681
1.158622689
1.158622697
1.158622702
1.158622707
1.158622586
1.15862259
1.158622596
1.158622603
1.158622611
1.158622619
1.158622625
1.158622631
1.158622637
1.158622643
1.158622649
1.158622654
1.15862266
1.158622667
1.158622674
1.158622682
1.158622691
1.158622701
1.15862271
1.158622724
1.158622565
1.158622578
1.158622591
1.158622602
1.158622611
1.158622618
1.158622625
1.158622632
1.158622638
1.158622644
1.158622649
1.158622655
1.158622661
1.158622668
1.158622675
1.158622683
1.158622692
1.158622703
1.158622715
1.158622759
1.158622571
1.158622597
1.158622604
1.158622613
1.158622622
1.158622631
1.158622638
1.158622645
1.158622652
1.158622658
1.158622664
1.15862267
1.158622676
1.158622682
1.158622689
1.158622697
1.158622706
1.158622719
1.158622738
1.158622799
)
;

boundaryField
{
    movingWall
    {
        type            calculated;
        value           nonuniform List<scalar> 
20
(
1.158622571
1.158622597
1.158622604
1.158622613
1.158622622
1.158622631
1.158622638
1.158622645
1.158622652
1.158622658
1.158622664
1.15862267
1.158622676
1.158622682
1.158622689
1.158622697
1.158622706
1.158622719
1.158622738
1.158622799
)
;
    }
    fixedWalls
    {
        type            calculated;
        value           nonuniform List<scalar> 
60
(
1.158622644
1.158622644
1.158622644
1.158622644
1.158622643
1.158622643
1.158622642
1.15862264
1.158622639
1.158622637
1.158622634
1.158622631
1.158622627
1.158622623
1.158622617
1.158622609
1.158622599
1.158622586
1.158622565
1.158622571
1.158622654
1.158622654
1.158622655
1.158622655
1.158622656
1.158622656
1.158622657
1.158622659
1.158622661
1.158622663
1.158622666
1.158622669
1.158622673
1.158622679
1.158622686
1.158622695
1.158622707
1.158622724
1.158622759
1.158622799
1.158622644
1.158622644
1.158622645
1.158622645
1.158622645
1.158622646
1.158622646
1.158622647
1.158622648
1.158622649
1.15862265
1.158622651
1.158622651
1.158622652
1.158622653
1.158622653
1.158622654
1.158622654
1.158622654
1.158622654
)
;
    }
    frontAndBack
    {
        type            empty;
    }
}


// ************************************************************************* //
