/*--------------------------------*- C++ -*----------------------------------*\
  =========                 |
  \\      /  F ield         | OpenFOAM: The Open Source CFD Toolbox
   \\    /   O peration     | Website:  https://openfoam.org
    \\  /    A nd           | Version:  dev
     \\/     M anipulation  |
\*---------------------------------------------------------------------------*/
FoamFile
{
    format      ascii;
    class       volScalarField;
    location    "0.1";
    object      T;
}
// * * * * * * * * * * * * * * * * * * * * * * * * * * * * * * * * * * * * * //

dimensions      [0 0 0 1 0 0 0];

internalField   nonuniform List<scalar> 
400
(
299.9999995
299.9999995
299.9999995
299.9999995
299.9999996
299.9999996
299.9999997
299.9999998
299.9999999
300
300.0000001
300.0000002
300.0000003
300.0000003
300.0000004
300.0000005
300.0000005
300.0000005
300.0000006
300.0000006
299.9999995
299.9999995
299.9999995
299.9999995
299.9999996
299.9999996
299.9999997
299.9999998
299.9999999
300
300.0000001
300.0000002
300.0000003
300.0000003
300.0000004
300.0000005
300.0000005
300.0000006
300.0000006
300.0000006
299.9999995
299.9999995
299.9999995
299.9999995
299.9999996
299.9999996
299.9999997
299.9999998
299.9999999
300
300.0000001
300.0000002
300.0000003
300.0000004
300.0000004
300.0000005
300.0000005
300.0000006
300.0000006
300.0000006
299.9999994
299.9999994
299.9999995
299.9999995
299.9999995
299.9999996
299.9999997
299.9999998
299.9999999
300
300.0000001
300.0000002
300.0000003
300.0000004
300.0000005
300.0000005
300.0000006
300.0000006
300.0000006
300.0000006
299.9999994
299.9999994
299.9999994
299.9999995
299.9999995
299.9999996
299.9999996
299.9999997
299.9999998
300
300.0000001
300.0000002
300.0000003
300.0000004
300.0000005
300.0000005
300.0000006
300.0000006
300.0000007
300.0000007
299.9999993
299.9999993
299.9999994
299.9999994
299.9999995
299.9999995
299.9999996
299.9999997
299.9999998
299.9999999
300.0000001
300.0000002
300.0000003
300.0000004
300.0000005
300.0000006
300.0000006
300.0000007
300.0000007
300.0000008
299.9999992
299.9999992
299.9999993
299.9999993
299.9999994
299.9999995
299.9999996
299.9999997
299.9999998
299.9999999
300.0000001
300.0000002
300.0000004
300.0000005
300.0000006
300.0000007
300.0000007
300.0000008
300.0000008
300.0000009
299.9999991
299.9999991
299.9999992
299.9999992
299.9999993
299.9999994
299.9999995
299.9999996
299.9999998
299.9999999
300.0000001
300.0000002
300.0000004
300.0000005
300.0000007
300.0000008
300.0000008
300.0000009
300.000001
300.000001
299.9999989
299.9999989
299.999999
299.9999991
299.9999992
299.9999993
299.9999994
299.9999995
299.9999997
299.9999999
300.0000001
300.0000003
300.0000005
300.0000006
300.0000008
300.0000009
300.000001
300.0000011
300.0000011
300.0000012
299.9999987
299.9999987
299.9999988
299.9999989
299.999999
299.9999991
299.9999993
299.9999995
299.9999997
299.9999999
300.0000001
300.0000003
300.0000005
300.0000007
300.0000009
300.000001
300.0000011
300.0000013
300.0000014
300.0000014
299.9999984
299.9999985
299.9999986
299.9999987
299.9999988
299.999999
299.9999992
299.9999994
299.9999996
299.9999998
300.0000001
300.0000004
300.0000006
300.0000008
300.000001
300.0000012
300.0000013
300.0000015
300.0000016
300.0000017
299.9999981
299.9999982
299.9999983
299.9999985
299.9999986
299.9999988
299.999999
299.9999993
299.9999995
299.9999998
300.0000001
300.0000004
300.0000007
300.0000009
300.0000012
300.0000014
300.0000016
300.0000018
300.0000019
300.0000021
299.9999977
299.9999978
299.999998
299.9999982
299.9999984
299.9999986
299.9999988
299.9999991
299.9999994
299.9999998
300.0000001
300.0000004
300.0000008
300.0000011
300.0000014
300.0000016
300.0000019
300.0000021
300.0000023
300.0000025
299.9999972
299.9999974
299.9999976
299.9999978
299.9999981
299.9999984
299.9999987
299.999999
299.9999994
299.9999997
300.0000001
300.0000005
300.0000009
300.0000012
300.0000016
300.0000019
300.0000022
300.0000025
300.0000028
300.000003
299.9999966
299.9999969
299.9999972
299.9999975
299.9999978
299.9999981
299.9999985
299.9999989
299.9999993
299.9999997
300.0000001
300.0000005
300.0000009
300.0000014
300.0000018
300.0000021
300.0000025
300.000003
300.0000034
300.0000037
299.9999959
299.9999962
299.9999966
299.9999971
299.9999975
299.9999979
299.9999983
299.9999987
299.9999992
299.9999996
300.0000001
300.0000005
300.000001
300.0000015
300.0000019
300.0000024
300.0000029
300.0000035
300.0000041
300.0000046
299.9999948
299.9999954
299.999996
299.9999966
299.9999971
299.9999976
299.9999981
299.9999986
299.999999
299.9999995
300
300.0000005
300.0000011
300.0000016
300.0000021
300.0000027
300.0000033
300.0000041
300.000005
300.0000058
299.9999935
299.9999943
299.9999953
299.999996
299.9999967
299.9999972
299.9999978
299.9999984
299.9999989
299.9999994
300
300.0000005
300.0000011
300.0000016
300.0000023
300.0000029
300.0000037
300.0000047
300.000006
300.0000076
299.9999914
299.9999929
299.9999942
299.9999952
299.9999959
299.9999966
299.9999972
299.9999979
299.9999984
299.999999
299.9999996
300.0000002
300.0000008
300.0000014
300.0000021
300.0000029
300.0000038
300.0000049
300.0000066
300.0000089
299.9999882
299.99999
299.9999909
299.9999916
299.9999923
299.9999929
299.9999935
299.9999941
299.9999946
299.9999952
299.9999958
299.9999963
299.999997
299.9999977
299.9999985
299.9999994
300.0000005
300.000002
300.0000041
300.0000063
)
;

boundaryField
{
    movingWall
    {
        type            zeroGradient;
    }
    fixedWalls
    {
        type            zeroGradient;
    }
    frontAndBack
    {
        type            empty;
    }
}


// ************************************************************************* //
