/*--------------------------------*- C++ -*----------------------------------*\
  =========                 |
  \\      /  F ield         | OpenFOAM: The Open Source CFD Toolbox
   \\    /   O peration     | Website:  https://openfoam.org
    \\  /    A nd           | Version:  dev
     \\/     M anipulation  |
\*---------------------------------------------------------------------------*/
FoamFile
{
    format      ascii;
    class       volVectorField;
    location    "0.1";
    object      U;
}
// * * * * * * * * * * * * * * * * * * * * * * * * * * * * * * * * * * * * * //

dimensions      [0 1 -1 0 0 0 0];

internalField   nonuniform List<vector> 
400
(
(-0.0001079384297 0.0001075382858 0)
(-0.0003247457604 0.0001208725458 0)
(-0.0005735353682 0.0001280323042 0)
(-0.0008390458354 0.000128145922 0)
(-0.001105332626 0.0001202987573 0)
(-0.001352522916 0.0001061112325 0)
(-0.001565194755 8.727092175e-05 0)
(-0.001732970011 6.505864059e-05 0)
(-0.001849407037 4.043761534e-05 0)
(-0.001909718751 1.470513071e-05 0)
(-0.001912849583 -1.177942987e-05 0)
(-0.001857765608 -3.795019336e-05 0)
(-0.001746269065 -6.298935666e-05 0)
(-0.001581915032 -8.592881562e-05 0)
(-0.001371043665 -0.0001056482525 0)
(-0.001123841035 -0.0001207822069 0)
(-0.0008557929388 -0.0001295313341 0)
(-0.0005869472675 -0.0001301731623 0)
(-0.0003334887501 -0.0001235277027 0)
(-0.0001109611774 -0.0001104620062 0)
(-0.0001302267639 0.000332091015 0)
(-0.0003858427637 0.000367466762 0)
(-0.0006531373376 0.0003999433637 0)
(-0.0009372747457 0.0004165700801 0)
(-0.001226480963 0.0003999589178 0)
(-0.001497236283 0.000355060339 0)
(-0.001730674101 0.0002916745651 0)
(-0.001914721898 0.0002167729699 0)
(-0.002042090453 0.0001346434547 0)
(-0.002108480907 4.840452346e-05 0)
(-0.002111813825 -3.944243442e-05 0)
(-0.002051780237 -0.0001265776974 0)
(-0.001929887174 -0.0002103714719 0)
(-0.001749873707 -0.0002876258529 0)
(-0.001518715161 -0.0003537780588 0)
(-0.00124831143 -0.0004015295207 0)
(-0.0009574984163 -0.0004207688567 0)
(-0.0006697473403 -0.0004064336499 0)
(-0.0003967992353 -0.0003759559386 0)
(-0.0001339651874 -0.0003417693811 0)
(-0.0001565716215 0.0006160085476 0)
(-0.0004725292937 0.0006489344935 0)
(-0.0007774340136 0.0006852901991 0)
(-0.001071985127 0.0007122932598 0)
(-0.00136324597 0.0006921424482 0)
(-0.0016372902 0.0006217728034 0)
(-0.001876202881 0.0005142726791 0)
(-0.002066331648 0.0003832531615 0)
(-0.002198723107 0.0002382853239 0)
(-0.002268115096 8.575224537e-05 0)
(-0.002271997153 -6.96638622e-05 0)
(-0.002210053092 -0.0002237287414 0)
(-0.002084178164 -0.0003715910785 0)
(-0.001899109445 -0.0005065960496 0)
(-0.001663418836 -0.0006187520164 0)
(-0.001390452944 -0.0006940057689 0)
(-0.00109778185 -0.0007189777363 0)
(-0.000798859308 -0.0006966769602 0)
(-0.0004864928527 -0.0006647616468 0)
(-0.0001611558773 -0.0006342921409 0)
(-0.0001825701595 0.0009614806653 0)
(-0.000569225748 0.0009884238462 0)
(-0.0009291040903 0.0009956598695 0)
(-0.001246088117 0.001004501994 0)
(-0.001541074624 0.0009685471453 0)
(-0.00181320259 0.0008735579098 0)
(-0.00205080759 0.0007273932842 0)
(-0.002241623189 0.0005450502781 0)
(-0.002375808404 0.0003401837688 0)
(-0.002446856497 0.0001230471121 0)
(-0.002451521439 -9.862821334e-05 0)
(-0.002389470958 -0.0003179172694 0)
(-0.002263307239 -0.0005268723702 0)
(-0.002078955228 -0.0007148568115 0)
(-0.001845735286 -0.00086774656 0)
(-0.001575376438 -0.000970144041 0)
(-0.001278883644 -0.001013985877 0)
(-0.0009563464654 -0.00101341451 0)
(-0.0005867195184 -0.001014033607 0)
(-0.0001882590283 -0.0009906291013 0)
(-0.0002058578473 0.00136722255 0)
(-0.0006542482256 0.001392375277 0)
(-0.001073598314 0.001353099023 0)
(-0.001425868323 0.001320019853 0)
(-0.00173733894 0.001251121016 0)
(-0.002015714977 0.001123684473 0)
(-0.002255501806 0.0009377191983 0)
(-0.002447703806 0.0007054575373 0)
(-0.002583457839 0.0004420707785 0)
(-0.002656045645 0.0001610434341 0)
(-0.002661845446 -0.0001265044893 0)
(-0.002600485753 -0.0004103605888 0)
(-0.00247485656 -0.0006791574187 0)
(-0.002290960733 -0.0009189876332 0)
(-0.002056945594 -0.001114233347 0)
(-0.00178102248 -0.001252348276 0)
(-0.001467745729 -0.001333198429 0)
(-0.001108368861 -0.00137924683 0)
(-0.0006764977975 -0.00143049861 0)
(-0.0002132145555 -0.001410052395 0)
(-0.0002301008512 0.001828378686 0)
(-0.0007351107634 0.001853242859 0)
(-0.001214057915 0.001760969526 0)
(-0.001611956811 0.001672132268 0)
(-0.001953981212 0.00155619912 0)
(-0.002251498308 0.001386126673 0)
(-0.00250283923 0.001154778414 0)
(-0.002702105698 0.0008700994256 0)
(-0.002842435013 0.0005469280073 0)
(-0.002918008645 0.0002009437215 0)
(-0.002925436364 -0.0001536090971 0)
(-0.002864277043 -0.0005032242637 0)
(-0.002737038429 -0.0008333978947 0)
(-0.002548633642 -0.001128030394 0)
(-0.002304970936 -0.001371899647 0)
(-0.002010873478 -0.001556861895 0)
(-0.00166672444 -0.001690018132 0)
(-0.001259757978 -0.001797873457 0)
(-0.0007646087513 -0.001907406986 0)
(-0.0002400327825 -0.00188897671 0)
(-0.0002597230911 0.002348811518 0)
(-0.0008285565502 0.002371646064 0)
(-0.001371545257 0.002221542244 0)
(-0.001823512931 0.002068560865 0)
(-0.002207895751 0.001894559133 0)
(-0.002536693263 0.001671366496 0)
(-0.002809744822 0.001386627584 0)
(-0.003023264418 0.001044162787 0)
(-0.003172558937 0.0006576400061 0)
(-0.003253382947 0.0002440019832 0)
(-0.003263075376 -0.000180063423 0)
(-0.003201102585 -0.0005983100959 0)
(-0.003069047942 -0.0009937965782 0)
(-0.00287002006 -0.001349199384 0)
(-0.002607459117 -0.001650581529 0)
(-0.002283677039 -0.001894109631 0)
(-0.001897030134 -0.002092261699 0)
(-0.001433504686 -0.002272344174 0)
(-0.0008690259927 -0.002447090671 0)
(-0.0002735022422 -0.002433401643 0)
(-0.0002984131172 0.002942022455 0)
(-0.0009489568548 0.002959026125 0)
(-0.001568536231 0.002743259888 0)
(-0.002084247141 0.002518066571 0)
(-0.002520678322 0.00227584319 0)
(-0.002890115564 0.001988579397 0)
(-0.003192814152 0.001640630623 0)
(-0.003426444862 0.001232699449 0)
(-0.003588479524 0.00077719858 0)
(-0.003676650627 0.0002916149684 0)
(-0.00368938295 -0.0002058612866 0)
(-0.003626043514 -0.0006972326981 0)
(-0.003486921359 -0.001164088678 0)
(-0.003272887795 -0.001588658814 0)
(-0.00298483856 -0.001958473094 0)
(-0.002623056055 -0.00227315557 0)
(-0.002184654021 -0.002548817373 0)
(-0.001654240487 -0.002812338923 0)
(-0.001005551366 -0.003063526158 0)
(-0.0003178715328 -0.003059852884 0)
(-0.0003497946673 0.003629876754 0)
(-0.001108333981 0.003635152701 0)
(-0.001824456563 0.003340232556 0)
(-0.002416170355 0.003030840031 0)
(-0.002912910717 0.00270828294 0)
(-0.003328885352 0.002344546477 0)
(-0.003665280669 0.001921959854 0)
(-0.003921590483 0.001439239223 0)
(-0.004097913317 0.0009077859052 0)
(-0.004194473195 0.000345007527 0)
(-0.004211140284 -0.0002305547104 0)
(-0.004147203533 -0.0008004872834 0)
(-0.004001333429 -0.001346112812 0)
(-0.003771649531 -0.001849938821 0)
(-0.003455957428 -0.002300899851 0)
(-0.003051911039 -0.00270124322 0)
(-0.00255440272 -0.003069834577 0)
(-0.001944276174 -0.003433504128 0)
(-0.00118830263 -0.003779925978 0)
(-0.000377723038 -0.003794457672 0)
(-0.0004182972468 0.004442663212 0)
(-0.001319605514 0.004426810896 0)
(-0.002158196288 0.004030815481 0)
(-0.002839850903 0.003617685437 0)
(-0.003403043422 0.003197640585 0)
(-0.003866965781 0.002742020503 0)
(-0.004235823446 0.002231658859 0)
(-0.00451259948 0.001664017643 0)
(-0.004701300472 0.001049557867 0)
(-0.004805534837 0.0004047914264 0)
(-0.004827115691 -0.0002528513256 0)
(-0.004765320558 -0.000906252786 0)
(-0.004616815747 -0.001538011439 0)
(-0.004376132314 -0.002131895109 0)
(-0.004036656706 -0.002678478661 0)
(-0.003591491979 -0.003182425055 0)
(-0.0030305761 -0.003665567771 0)
(-0.002326764375 -0.004155882978 0)
(-0.001433351754 -0.004627733097 0)
(-0.0004592860462 -0.00467374037 0)
(-0.0005101779847 0.005421121409 0)
(-0.0015999686 0.005368172661 0)
(-0.002592162153 0.004836289385 0)
(-0.003376903684 0.004288317853 0)
(-0.004008017575 0.003745516459 0)
(-0.004514604361 0.003178015387 0)
(-0.004907605648 0.002564984707 0)
(-0.005196461731 0.001902561209 0)
(-0.005391199934 0.001199679478 0)
(-0.005500107803 0.0004705962879 0)
(-0.005527594425 -0.0002703287655 0)
(-0.005473055738 -0.001009477292 0)
(-0.005330729705 -0.001732790337 0)
(-0.005090434313 -0.002426899745 0)
(-0.004739088906 -0.003085085797 0)
(-0.004262071974 -0.003715357156 0)
(-0.003639845565 -0.004344045076 0)
(-0.002830538388 -0.00500222381 0)
(-0.001763556745 -0.005647487239 0)
(-0.0005713184591 -0.005747987389 0)
(-0.0006351646448 0.006621022664 0)
(-0.001974904306 0.006502373972 0)
(-0.003155994763 0.005778992219 0)
(-0.004051437839 0.005047971053 0)
(-0.004742395098 0.004346019345 0)
(-0.005275991057 0.00364118269 0)
(-0.005675391358 0.00290955879 0)
(-0.005960450253 0.002144476344 0)
(-0.006149769056 0.001351610917 0)
(-0.006257726776 0.0005407811518 0)
(-0.006291997953 -0.00027930045 0)
(-0.00625230622 -0.001101266396 0)
(-0.006130183703 -0.001917113962 0)
(-0.005909684835 -0.002718846425 0)
(-0.005569000897 -0.003504827234 0)
(-0.005081856917 -0.004289163663 0)
(-0.004412968661 -0.005106461695 0)
(-0.003494954033 -0.005994952968 0)
(-0.002215097444 -0.006890885253 0)
(-0.0007271502868 -0.007088382187 0)
(-0.0008096094511 0.008121885834 0)
(-0.002484392134 0.007883582631 0)
(-0.003889718029 0.006878211983 0)
(-0.00488870454 0.005891055127 0)
(-0.005614266983 0.004980165957 0)
(-0.00614425504 0.004108104709 0)
(-0.006520737071 0.00324335809 0)
(-0.006777984473 0.002372528289 0)
(-0.006945298207 0.00149471711 0)
(-0.007044084995 0.0006122269968 0)
(-0.007085702643 -0.0002749310123 0)
(-0.007070518358 -0.001168747999 0)
(-0.006987557355 -0.002070511271 0)
(-0.00681479447 -0.002981041615 0)
(-0.006520210497 -0.003907827069 0)
(-0.006062427629 -0.004876685402 0)
(-0.005383489907 -0.005938818357 0)
(-0.004374761194 -0.007149720789 0)
(-0.002844900185 -0.008422872646 0)
(-0.0009533151024 -0.008800412723 0)
(-0.001063295221 0.01004402848 0)
(-0.00319423176 0.009577909319 0)
(-0.004846486962 0.008140220696 0)
(-0.005910599152 0.006789739223 0)
(-0.006619179496 0.005608044317 0)
(-0.007096441425 0.004539512486 0)
(-0.007408630105 0.003533590882 0)
(-0.007606808558 0.002562722518 0)
(-0.007731517796 0.00161457637 0)
(-0.007810901009 0.0006803238482 0)
(-0.007859837654 -0.000251743262 0)
(-0.007879804585 -0.001195855731 0)
(-0.007858395891 -0.002165808082 0)
(-0.007768726184 -0.003175154687 0)
(-0.007569154137 -0.00424598863 0)
(-0.007202306325 -0.005425137939 0)
(-0.006583546311 -0.006797179745 0)
(-0.005545475373 -0.008460245005 0)
(-0.003751757925 -0.01031998177 0)
(-0.001300703858 -0.01105112984 0)
(-0.001455247938 0.01258400165 0)
(-0.004219617812 0.0116576173 0)
(-0.006096857461 0.009534074677 0)
(-0.00713153684 0.007675064698 0)
(-0.007738018056 0.006160922323 0)
(-0.008094178401 0.004879330635 0)
(-0.008290099549 0.003738537748 0)
(-0.0083927989 0.002686575668 0)
(-0.008452046416 0.001694514137 0)
(-0.008500607097 0.0007392492646 0)
(-0.008555869028 -0.000204724677 0)
(-0.008621059948 -0.001165589549 0)
(-0.00868467643 -0.002171943734 0)
(-0.00871849723 -0.003253334258 0)
(-0.00867509905 -0.004451769292 0)
(-0.008484683681 -0.00584647734 0)
(-0.008040525235 -0.007583261362 0)
(-0.007111694746 -0.00986107586 0)
(-0.005115179837 -0.01265074336 0)
(-0.001877917318 -0.01412231824 0)
(-0.00211328768 0.01611384343 0)
(-0.005784206728 0.01416783431 0)
(-0.007739972515 0.01093598293 0)
(-0.008563364353 0.008416856461 0)
(-0.008943725906 0.006542842983 0)
(-0.009088221556 0.005061611564 0)
(-0.009104326418 0.003813895717 0)
(-0.00907029585 0.002715681977 0)
(-0.009039345677 0.001718168948 0)
(-0.009044317667 0.0007824340437 0)
(-0.009103012556 -0.0001309273052 0)
(-0.009221321932 -0.001063476866 0)
(-0.009392580646 -0.002059051405 0)
(-0.009594010803 -0.003164607572 0)
(-0.009781058892 -0.004444737413 0)
(-0.009880730058 -0.00601706221 0)
(-0.009781091411 -0.008115262625 0)
(-0.009225940001 -0.01113945305 0)
(-0.007289958252 -0.01536896164 0)
(-0.00293279105 -0.01853586232 0)
(-0.003352627771 0.02117552216 0)
(-0.008399850421 0.01695480667 0)
(-0.009913652185 0.01205816841 0)
(-0.01021427164 0.008840409318 0)
(-0.01017492399 0.006651280646 0)
(-0.009972834661 0.005019446459 0)
(-0.009722172738 0.003714552267 0)
(-0.009499007903 0.002621558865 0)
(-0.009347101583 0.00166885991 0)
(-0.009291272207 0.0008015318849 0)
(-0.009345709518 -3.151850966e-05 0)
(-0.009519280735 -0.0008813047886 0)
(-0.009816179707 -0.001804428631 0)
(-0.01022948646 -0.002862937594 0)
(-0.0107382221 -0.00414090301 0)
(-0.01129248099 -0.005789843644 0)
(-0.01179473949 -0.008131153031 0)
(-0.01208730114 -0.01183311963 0)
(-0.01106234953 -0.01808604758 0)
(-0.005039808125 -0.02565014088 0)
(-0.006171599346 0.02986522669 0)
(-0.01286105352 0.01961448513 0)
(-0.01256118375 0.01246579662 0)
(-0.01170621648 0.008656795048 0)
(-0.01084666394 0.006265928305 0)
(-0.01006697741 0.004598847894 0)
(-0.009420603254 0.003344626462 0)
(-0.008931391739 0.0023441727 0)
(-0.008610235941 0.001509711188 0)
(-0.008462485775 0.0007761444682 0)
(-0.00849207583 8.737833319e-05 0)
(-0.008708468915 -0.0006095511162 0)
(-0.00913405567 -0.001373643109 0)
(-0.009787103609 -0.002274945483 0)
(-0.01069304135 -0.003413183593 0)
(-0.01186231559 -0.004981748083 0)
(-0.01326936317 -0.007381535207 0)
(-0.01498643552 -0.01151628093 0)
(-0.01720296085 -0.02022815783 0)
(-0.00834131311 -0.03785771297 0)
(-0.008865026069 0.0323196331 0)
(-0.01575189174 0.01689488299 0)
(-0.01030723012 0.01005733256 0)
(-0.006808974083 0.006829816656 0)
(-0.004507239058 0.004802277309 0)
(-0.002848760078 0.003437270892 0)
(-0.001603208291 0.002461662509 0)
(-0.0007071802448 0.001723234175 0)
(-0.0001154716761 0.001134633645 0)
(0.0002025435177 0.0006359390849 0)
(0.0002642542142 0.0001801479896 0)
(8.968381552e-05 -0.0002713457659 0)
(-0.0003603918056 -0.0007647404502 0)
(-0.001137422035 -0.001353367698 0)
(-0.00231320372 -0.002122473415 0)
(-0.003987713449 -0.003282367738 0)
(-0.006263772539 -0.005390026928 0)
(-0.009654497745 -0.01002530795 0)
(-0.01772799058 -0.02124044623 0)
(-0.000100427596 -0.0466696228 0)
(0.05512277456 0.06686723422 0)
(0.05874588258 0.02535188893 0)
(0.07219715693 0.00532216929 0)
(0.07894468245 0.003097719667 0)
(0.08314350641 0.002324027138 0)
(0.08621001616 0.001664037618 0)
(0.08845327405 0.001182268661 0)
(0.09005287614 0.0008385411213 0)
(0.09115835992 0.0005842240303 0)
(0.09187502823 0.0003906031997 0)
(0.0922599648 0.0001920367041 0)
(0.09227898579 3.50080059e-05 0)
(0.09201881005 -0.0001091512956 0)
(0.09135299671 -0.0002908319318 0)
(0.09025110448 -0.0005001387094 0)
(0.08850884191 -0.0007920348015 0)
(0.08564195388 -0.001270179794 0)
(0.08088161311 -0.00208984175 0)
(0.06527498314 -0.009258633214 0)
(0.07740427179 -0.06630318479 0)
)
;

boundaryField
{
    movingWall
    {
        type            fixedValue;
        value           uniform (1 0 0);
    }
    fixedWalls
    {
        type            fixedValue;
        value           uniform (0 0 0);
    }
    frontAndBack
    {
        type            empty;
    }
}


// ************************************************************************* //
