/*--------------------------------*- C++ -*----------------------------------*\
  =========                 |
  \\      /  F ield         | OpenFOAM: The Open Source CFD Toolbox
   \\    /   O peration     | Website:  https://openfoam.org
    \\  /    A nd           | Version:  dev
     \\/     M anipulation  |
\*---------------------------------------------------------------------------*/
FoamFile
{
    format      ascii;
    class       volScalarField;
    location    "0.2";
    object      alphat;
}
// * * * * * * * * * * * * * * * * * * * * * * * * * * * * * * * * * * * * * //

dimensions      [1 -1 -1 0 0 0 0];

internalField   nonuniform List<scalar> 
400
(
9.314587642e-07
1.276496661e-06
1.54006888e-06
1.662096125e-06
1.711084195e-06
1.730618314e-06
1.739624993e-06
1.74515107e-06
1.749629596e-06
1.753755349e-06
1.758657251e-06
1.765058642e-06
1.770470359e-06
1.773463443e-06
1.770727424e-06
1.753364088e-06
1.70005394e-06
1.565632053e-06
1.284643313e-06
9.314580151e-07
1.285669205e-06
2.491056956e-05
4.472353933e-05
5.318990668e-05
5.674644772e-05
5.834791589e-05
5.922575835e-05
5.986376108e-05
6.043684253e-05
6.098479343e-05
6.141077871e-05
6.163654272e-05
6.177319669e-05
6.172795803e-05
6.124458839e-05
5.971205123e-05
5.572764538e-05
4.618874921e-05
2.481106531e-05
1.275937397e-06
1.570024682e-06
4.634598289e-05
0.0001238694342
0.0001781268071
0.0002068041943
0.0002208119049
0.0002277376546
0.0002314907573
0.0002338846502
0.0002356458905
0.0002368637552
0.0002373821992
0.0002369865199
0.0002346503923
0.0002281483137
0.0002130233976
0.000181340576
0.0001231041822
4.425837979e-05
1.537186246e-06
1.710627565e-06
5.606960276e-05
0.0001825840398
0.00030940178
0.0003969731845
0.0004477803561
0.0004750646517
0.0004894335161
0.0004971951526
0.0005015016456
0.000503412418
0.000502671432
0.0004975966597
0.0004842795652
0.0004555474569
0.0004003175506
0.0003065500638
0.0001760842568
5.217608568e-05
1.65529433e-06
1.772265748e-06
6.033987129e-05
0.0002152005877
0.0004044859829
0.0005630003298
0.0006702051735
0.0007343208516
0.0007699346057
0.000788689508
0.0007975204854
0.0007994429868
0.0007938339644
0.0007766523428
0.000739770495
0.0006708456358
0.0005561925138
0.0003914909496
0.0002028808265
5.50332502e-05
1.699174976e-06
1.799924502e-06
6.224423346e-05
0.000231706311
0.0004619926639
0.0006798702053
0.0008445444586
0.0009522240886
0.001015784076
0.001049881962
0.0010648447
0.00106586624
0.001051853624
0.00101647331
0.0009481939012
0.000832567076
0.0006595551512
0.0004385528127
0.0002144671126
5.577394158e-05
1.712332344e-06
1.815240787e-06
6.318655427e-05
0.000239996925
0.0004940012792
0.0007524663441
0.0009627396012
0.001109365989
0.00120024283
0.001250191579
0.001271447577
0.001270877129
0.001247000149
0.001192002975
0.001092841804
0.0009361129678
0.0007183493625
0.0004609769981
0.0002183793687
5.558949375e-05
1.713663778e-06
1.827486329e-06
6.37874481e-05
0.0002445259842
0.0005115275085
0.0007945322648
0.001035386427
0.001210531012
0.00132279068
0.001385628096
0.001411904181
0.001409417877
0.001376459844
0.001304586587
0.0011807522
0.0009940325757
0.0007471281337
0.0004693342707
0.000218496017
5.490804638e-05
1.709741604e-06
1.840702259e-06
6.431994027e-05
0.0002475633387
0.0005217264134
0.0008183055099
0.001076932372
0.00126951116
0.001395354996
0.001466451165
0.001495663419
0.001491217066
0.001451242795
0.00136719222
0.001226642083
0.00102108058
0.0007576419413
0.000469981783
0.0002164471407
5.38454756e-05
1.702575151e-06
1.857028725e-06
6.491328941e-05
0.0002502214576
0.0005285913683
0.000831832589
0.001098653807
0.001299099321
0.001430924537
0.001505353602
0.001535211909
0.001528870441
0.001484304552
0.001393086659
0.001243374422
0.001028200973
0.000757104355
0.0004658279694
0.0002128073152
5.238728082e-05
1.692452715e-06
1.878131719e-06
6.564269224e-05
0.0002530330464
0.0005339886401
0.0008390450311
0.001106407515
0.001306361786
0.001437052771
0.001509985778
0.001538212502
0.001530093863
0.001483477746
0.001389951898
0.001237824477
0.001020538402
0.0007483679761
0.0004578778112
0.0002075756385
5.044429598e-05
1.678815047e-06
1.905905649e-06
6.656784275e-05
0.0002562095692
0.0005382156664
0.0008400990322
0.001100214116
0.001291098331
0.001413281071
0.001479635415
0.001503745645
0.001493767609
0.001447591783
0.001356718772
0.001209160638
0.0009975404164
0.0007310124083
0.000445624409
0.0002003323979
4.785362022e-05
1.660417943e-06
1.943015824e-06
6.774801799e-05
0.0002596613207
0.0005398269768
0.0008311174627
0.001073040796
0.00124388798
0.00134898604
0.001403309588
0.001420900486
0.001409209418
0.001366235061
0.00128359951
0.001148890093
0.0009527919558
0.0007010592529
0.0004270635044
0.0001901728156
4.434142094e-05
1.634989094e-06
1.993583152e-06
6.924026739e-05
0.0002627441551
0.0005348591576
0.0008019120323
0.001009668416
0.001146995533
0.001225874416
0.001263080404
0.001272212826
0.001259178593
0.001222251913
0.001153719902
0.001041386833
0.0008736204699
0.00065028223
0.0003981775927
0.000175518653
3.947759224e-05
1.599634784e-06
2.064619069e-06
7.106442567e-05
0.000263239898
0.0005136340833
0.0007342103415
0.0008875273751
0.0009782897891
0.001024461069
0.001042232778
0.001042666522
0.001029277928
0.001000685945
0.0009506750351
0.0008690178805
0.000743192357
0.0005660385796
0.0003523720006
0.0001540387526
3.271613586e-05
1.591430979e-06
2.167138634e-06
7.311237808e-05
0.0002559360171
0.0004573957124
0.0006026110858
0.0006859418186
0.0007264405122
0.0007419444047
0.0007440643458
0.0007383902093
0.0007266396988
0.0007073637836
0.0006764090262
0.0006276820286
0.000551238344
0.0004360671982
0.0002819595042
0.0001241260509
2.541340862e-05
2.070098716e-06
2.328713266e-06
7.421649575e-05
0.0002252139172
0.000339109584
0.0003952731617
0.000417628792
0.0004230806737
0.0004216311654
0.0004169782417
0.0004107796648
0.0004030662624
0.0003926474003
0.0003772496595
0.0003551612207
0.0003212919627
0.0002681045867
0.000187768819
9.049878408e-05
2.238892281e-05
6.543324713e-06
2.690903816e-06
7.021769758e-05
0.0001458213581
0.0001701881197
0.0001754260236
0.0001748861675
0.0001714792029
0.0001683597773
0.0001654078374
0.000162589321
0.0001596824869
0.000156191563
0.0001514127512
0.000145332214
0.0001366490171
0.0001227913195
0.0001005966513
6.936773415e-05
3.978871793e-05
2.783500086e-05
6.84589101e-06
5.140559923e-05
6.241334316e-05
6.710763614e-05
6.741624668e-05
6.703072339e-05
6.50195749e-05
6.462213581e-05
6.436056583e-05
6.412197895e-05
6.390495832e-05
6.378903966e-05
6.375029851e-05
6.360684095e-05
6.643853753e-05
6.763116007e-05
6.99499569e-05
7.165253389e-05
8.458334653e-05
7.959411439e-05
4.440979724e-05
4.450953632e-05
4.079367009e-05
5.102867612e-05
5.224868666e-05
5.127613222e-05
4.887763485e-05
4.944401354e-05
4.967761821e-05
4.978793516e-05
4.986162837e-05
4.990162775e-05
5.070161066e-05
4.27525789e-05
5.202713974e-05
5.316262801e-05
5.400185486e-05
4.281985864e-05
4.336416305e-05
3.780225726e-05
)
;

boundaryField
{
    movingWall
    {
        type            compressible::alphatWallFunction;
        Prt             0.85;
        value           nonuniform List<scalar> 
20
(
1.899713954e-06
9.001418197e-07
6.548763296e-08
2.0865587e-06
2.296693532e-06
2.093265716e-06
1.59859995e-06
1.672008179e-06
1.698696194e-06
1.703399194e-06
1.70691298e-06
1.70054906e-06
1.839418996e-06
3.242952924e-07
2.111656056e-06
2.322106906e-06
2.495435502e-06
3.603047604e-07
3.582108826e-07
0
)
;
    }
    fixedWalls
    {
        type            compressible::alphatWallFunction;
        Prt             0.85;
        value           nonuniform List<scalar> 
60
(
0
0
0
0
0
0
0
0
0
0
0
0
0
0
0
0
0
0
0
1.899713954e-06
0
0
0
0
0
0
0
0
0
0
0
0
0
0
0
0
0
0
0
0
0
0
0
0
0
0
0
0
0
0
0
0
0
0
0
0
0
0
0
0
)
;
    }
    frontAndBack
    {
        type            empty;
    }
}


// ************************************************************************* //
