/*--------------------------------*- C++ -*----------------------------------*\
  =========                 |
  \\      /  F ield         | OpenFOAM: The Open Source CFD Toolbox
   \\    /   O peration     | Website:  https://openfoam.org
    \\  /    A nd           | Version:  dev
     \\/     M anipulation  |
\*---------------------------------------------------------------------------*/
FoamFile
{
    format      ascii;
    class       volScalarField;
    location    "0.2";
    object      k;
}
// * * * * * * * * * * * * * * * * * * * * * * * * * * * * * * * * * * * * * //

dimensions      [0 2 -2 0 0 0 0];

internalField   nonuniform List<scalar> 
400
(
0.0001179991446
0.0001676134684
0.0002062103965
0.000224362376
0.0002318063731
0.0002348527524
0.0002362934798
0.0002371927467
0.0002379257122
0.0002386005237
0.0002393789213
0.0002403829784
0.000241221887
0.0002416685991
0.0002412041316
0.0002384677557
0.0002302938955
0.0002101465874
0.0001688126856
0.0001179995313
0.0001689671696
0.0009939979272
0.001390824653
0.001557258946
0.00162848803
0.001660026315
0.001675666569
0.001685243444
0.001692613571
0.001698996286
0.001703998894
0.001707060748
0.001708308219
0.001705821195
0.001694630717
0.001663443441
0.001586891564
0.001408546407
0.0009917095037
0.0001675216806
0.0002108180009
0.001411581843
0.002006884834
0.002249754815
0.002360137423
0.002413361649
0.002440010891
0.002454035998
0.002462020372
0.002466899802
0.00246951588
0.002469681259
0.002465960917
0.002454818797
0.002428944066
0.00237357109
0.002257141365
0.002002290356
0.001384476944
0.0002057368143
0.0002319322284
0.001592481974
0.002262253876
0.002526637628
0.002647756224
0.002709042397
0.002741527971
0.00275905009
0.0027684594
0.002773099875
0.002774331636
0.002771932626
0.002764159797
0.002747200281
0.002713720266
0.002649233454
0.002521371599
0.002242908894
0.001545116203
0.0002232466404
0.0002414193671
0.001673064082
0.002380715765
0.002654950544
0.002779505685
0.00284355544
0.002878678327
0.002898267657
0.002908837829
0.002913639559
0.002914122014
0.002910048264
0.002899733464
0.002879534791
0.002842476929
0.002774360985
0.002641676039
0.002350069266
0.001608652831
0.0002298522134
0.0002457811295
0.001709688902
0.002439501693
0.002721327639
0.002848477626
0.002914068104
0.002950613785
0.002971440037
0.002982813817
0.002987815876
0.002987856793
0.002982697031
0.002970759593
0.002948578414
0.002909351125
0.00283870816
0.002701660579
0.00239891363
0.001630229208
0.0002318496796
0.000248227309
0.001727739837
0.0024701865
0.002758057495
0.002887855597
0.002954876747
0.00299248788
0.003014172551
0.003026111994
0.003031278541
0.003031026832
0.003025117435
0.003012035212
0.002988390419
0.002947351422
0.002874137334
0.002732415075
0.002419884082
0.001633480738
0.0002320306499
0.0002501729924
0.00173863329
0.002487598767
0.002779685057
0.002911829361
0.002980196153
0.003018700962
0.003041025638
0.003053360272
0.003058631913
0.003058161375
0.003051695152
0.003037731833
0.003012868179
0.002970125894
0.002894254545
0.002747843155
0.002426741483
0.001627532628
0.0002313768363
0.0002522509699
0.001747516961
0.002499190485
0.002793663969
0.002927459412
0.00299684022
0.003035977837
0.003058705095
0.003071253638
0.003076545494
0.003075888752
0.003069003667
0.003054364856
0.003028496239
0.002984214592
0.002905799423
0.002754927404
0.002426112571
0.001615393959
0.0002301944477
0.0002548002733
0.001756835273
0.002508814247
0.002804019597
0.002938527407
0.003008338255
0.003047684268
0.003070485194
0.003083013376
0.003088207184
0.003087373267
0.003080197601
0.003065103056
0.003038502314
0.002992971644
0.002912294233
0.002757150667
0.0024204724
0.00159737023
0.0002285244169
0.0002580816413
0.001767929074
0.00251845845
0.002812826775
0.002946940826
0.003016399237
0.003055381221
0.003077833091
0.003090050183
0.003094996554
0.00309397721
0.003086634545
0.003071323175
0.003044315947
0.002997908441
0.002915305204
0.002756031939
0.002410470521
0.001572089333
0.0002262728298
0.0002623852449
0.001781730641
0.002529041259
0.00282085373
0.002953305548
0.003021498246
0.003059455914
0.003081081084
0.003092662718
0.003097193405
0.003095967698
0.003088577523
0.003073287882
0.003046204286
0.002999305776
0.002915115083
0.002751459619
0.002395058745
0.001536424881
0.0002232321451
0.0002681127215
0.001799025656
0.0025406675
0.002827813819
0.002957192427
0.003023166785
0.003059438371
0.003079773235
0.003090392553
0.003094326713
0.003092850274
0.00308550839
0.003070446349
0.003043556218
0.002996420935
0.002910679479
0.002741879882
0.002371130897
0.001484278248
0.0002189862587
0.0002758764335
0.001820441275
0.002552547812
0.002832423216
0.002957293611
0.003020268312
0.003054272328
0.003072822772
0.003082117112
0.003085249511
0.003083450347
0.003076207622
0.003061507978
0.003034953639
0.002987589441
0.002899841564
0.00272396424
0.002332361147
0.001403894555
0.0002134996916
0.0002867172713
0.001846127795
0.002562663745
0.002832449038
0.002951754714
0.003010903364
0.003041967406
0.00305820247
0.00306579807
0.003067912465
0.003065688865
0.003058556774
0.003044298949
0.003018120434
0.002970273467
0.002879329404
0.002692498319
0.002268152152
0.00127402358
0.000214406187
0.0003022138423
0.001875463894
0.002568273504
0.002825629026
0.002937891726
0.002992249089
0.003019604799
0.003032886585
0.003038318596
0.003039130615
0.003036311631
0.003029260909
0.003015514293
0.002989791686
0.002941289833
0.002845684996
0.002643231219
0.002177881944
0.001158218527
0.0003146564852
0.0003264138464
0.001910142165
0.002570792856
0.002812878822
0.002916406489
0.002964400074
0.002987205535
0.002996963699
0.002999926324
0.002999295221
0.002995835241
0.002989060523
0.002976701754
0.002952718398
0.002906672602
0.002811139468
0.002604909471
0.002149009359
0.001344580218
0.001136628127
0.0003801847316
0.00201051974
0.002633311974
0.00286331178
0.002958615327
0.00300081577
0.003024627206
0.003034300443
0.003037404223
0.003037402294
0.003035237585
0.003031164534
0.00302541445
0.003005470856
0.002985227949
0.002931284679
0.002826672006
0.002722806695
0.003108875879
0.004667469759
0.001008276886
0.003059655653
0.003658861979
0.004038665067
0.004187504004
0.004242815451
0.00432440205
0.004375764666
0.004407271776
0.004430207092
0.00445043751
0.004473040508
0.004522534711
0.004415679222
0.004584171095
0.00476674027
0.005153716259
0.005796618528
0.008279628679
0.01297649379
0.01814123923
0.01899252642
0.01788756001
0.02053177233
0.02139689864
0.02124283412
0.0203892996
0.02038358168
0.02042178864
0.0204304494
0.02043654034
0.02042557237
0.0206049797
0.01868685578
0.02056410271
0.02139089384
0.0217917863
0.01906157514
0.01864334543
0.02319698012
)
;

boundaryField
{
    movingWall
    {
        type            kqRWallFunction;
        value           nonuniform List<scalar> 
20
(
0.01814123923
0.01899252642
0.01788756001
0.02053177233
0.02139689864
0.02124283412
0.0203892996
0.02038358168
0.02042178864
0.0204304494
0.02043654034
0.02042557237
0.0206049797
0.01868685578
0.02056410271
0.02139089384
0.0217917863
0.01906157514
0.01864334543
0.02319698012
)
;
    }
    fixedWalls
    {
        type            kqRWallFunction;
        value           nonuniform List<scalar> 
60
(
0.0001179991446
0.0001689671696
0.0002108180009
0.0002319322284
0.0002414193671
0.0002457811295
0.000248227309
0.0002501729924
0.0002522509699
0.0002548002733
0.0002580816413
0.0002623852449
0.0002681127215
0.0002758764335
0.0002867172713
0.0003022138423
0.0003264138464
0.0003801847316
0.001008276886
0.01814123923
0.0001179995313
0.0001675216806
0.0002057368143
0.0002232466404
0.0002298522134
0.0002318496796
0.0002320306499
0.0002313768363
0.0002301944477
0.0002285244169
0.0002262728298
0.0002232321451
0.0002189862587
0.0002134996916
0.000214406187
0.0003146564852
0.001136628127
0.004667469759
0.01297649379
0.02319698012
0.0001179991446
0.0001676134684
0.0002062103965
0.000224362376
0.0002318063731
0.0002348527524
0.0002362934798
0.0002371927467
0.0002379257122
0.0002386005237
0.0002393789213
0.0002403829784
0.000241221887
0.0002416685991
0.0002412041316
0.0002384677557
0.0002302938955
0.0002101465874
0.0001688126856
0.0001179995313
)
;
    }
    frontAndBack
    {
        type            empty;
    }
}


// ************************************************************************* //
