/*--------------------------------*- C++ -*----------------------------------*\
  =========                 |
  \\      /  F ield         | OpenFOAM: The Open Source CFD Toolbox
   \\    /   O peration     | Website:  https://openfoam.org
    \\  /    A nd           | Version:  dev
     \\/     M anipulation  |
\*---------------------------------------------------------------------------*/
FoamFile
{
    format      ascii;
    class       volScalarField;
    location    "0.2";
    object      nut;
}
// * * * * * * * * * * * * * * * * * * * * * * * * * * * * * * * * * * * * * //

dimensions      [0 2 -1 0 0 0 0];

internalField   nonuniform List<scalar> 
400
(
5.804877768e-07
8.245616525e-07
1.014436292e-06
1.103733568e-06
1.140353743e-06
1.155340174e-06
1.162427723e-06
1.166851598e-06
1.170457366e-06
1.173777051e-06
1.177606319e-06
1.182545702e-06
1.18667265e-06
1.188870216e-06
1.186585305e-06
1.173123913e-06
1.132913232e-06
1.033800089e-06
8.304611152e-07
5.804896829e-07
8.312210824e-07
1.740138123e-05
3.156545377e-05
3.766742403e-05
4.02758745e-05
4.147860139e-05
4.215296037e-05
4.264965225e-05
4.309780037e-05
4.352661889e-05
4.386254317e-05
4.403949255e-05
4.4144754e-05
4.410661653e-05
4.373171764e-05
4.25713046e-05
3.961973643e-05
3.268273096e-05
1.732168855e-05
8.241101147e-07
1.03710305e-06
3.28061804e-05
8.817540995e-05
0.000126863816
0.000147487929
0.000157728982
0.0001629016014
0.0001657685513
0.0001676287417
0.0001690069833
0.000169961629
0.0001703633744
0.0001700545824
0.0001682726247
0.0001634015375
0.0001522688363
0.0001293134079
8.75670165e-05
3.119554445e-05
1.012106547e-06
1.140972878e-06
3.988687681e-05
0.0001302922248
0.0002203971874
0.0002828041567
0.0003193888908
0.0003393461662
0.0003500600517
0.0003559632221
0.0003592871094
0.0003607719052
0.0003602130282
0.0003563729342
0.0003464341893
0.0003253163527
0.0002853012689
0.0002181419984
0.0001252457125
3.686653254e-05
1.098244799e-06
1.187644132e-06
4.306311347e-05
0.000153975531
0.0002885869359
0.0004013398234
0.0004781340516
0.0005246172317
0.0005508426859
0.0005648898246
0.0005715961724
0.0005730760563
0.000568834816
0.000555957741
0.0005286951843
0.0004784639852
0.0003959428516
0.0002784687244
0.0001443887128
3.892555942e-05
1.130740412e-06
1.209101488e-06
4.451692212e-05
0.0001661901964
0.0003303826159
0.0004856160934
0.0006035930774
0.0006815249076
0.0007281438102
0.0007535110345
0.0007647551319
0.000765508674
0.0007549069189
0.0007284512859
0.0006781085791
0.0005940236215
0.0004696704662
0.0003120979188
0.0001527210595
3.945263727e-05
1.140566795e-06
1.221135281e-06
4.525413199e-05
0.0001724667496
0.0003540689565
0.0005387401815
0.0006897479097
0.0007960387724
0.0008627244957
0.000899831036
0.0009157250663
0.0009151893465
0.0008970623392
0.0008558742081
0.0007826807202
0.0006685932936
0.0005119165464
0.0003282166514
0.0001555190684
3.929291159e-05
1.141457066e-06
1.23070692e-06
4.573026074e-05
0.0001759730611
0.0003673135084
0.0005700872981
0.0007435684952
0.0008708735369
0.0009534324207
0.001000155907
0.001019761172
0.001017656876
0.0009925174737
0.0009385121574
0.0008468645116
0.0007106517798
0.0005327000905
0.0003341824187
0.0001555162446
3.875377837e-05
1.138240681e-06
1.240929371e-06
4.615122491e-05
0.0001783569526
0.000375177716
0.0005881546801
0.0007749038881
0.0009152239334
0.001007971633
0.001060893791
0.001082647801
0.001078919732
0.001048279341
0.0009849036177
0.000880601381
0.0007303300542
0.0005401923575
0.0003344613825
0.0001538702319
3.791799688e-05
1.132424013e-06
1.253470472e-06
4.661678769e-05
0.0001804435182
0.0003805330411
0.0005986067314
0.0007915598499
0.0009378047208
0.001035048478
0.001090438912
0.001112592238
0.00110728733
0.001072993586
0.001004039067
0.0008927385584
0.0007352467595
0.0005394362972
0.0003310932959
0.0001509842468
3.67725512e-05
1.124208426e-06
1.269612909e-06
4.718529274e-05
0.0001826337069
0.00038473567
0.0006042246118
0.0007975933605
0.0009434267078
0.001039724993
0.001093860414
0.001114654268
0.001107874826
0.001071919653
0.001001144622
0.0008879953456
0.0007289422028
0.0005324062078
0.0003247721019
0.000146842824
3.52482413e-05
1.113131919e-06
1.290784154e-06
4.790205202e-05
0.0001850843237
0.000387989134
0.0006050722182
0.0007929396114
0.000931842804
0.001021547592
0.001070512826
0.001088037322
0.001079747802
0.001044100171
0.000975360007
0.0008657092714
0.0007109776226
0.0005187612102
0.0003150913773
0.0001411143994
3.321954535e-05
1.098173506e-06
1.318960034e-06
4.881038716e-05
0.0001877187135
0.0003892007368
0.0005983082848
0.000772481963
0.0008962383291
0.0009728978863
0.00101258787
0.001025064544
0.00101544309
0.0009822759521
0.0009198490308
0.0008199241858
0.0006768177517
0.000495638041
0.0003005604186
0.0001331026755
3.047766634e-05
1.077286197e-06
1.357153017e-06
4.994973811e-05
0.0001900411161
0.0003854625357
0.0005765466584
0.000725369379
0.0008241469391
0.0008811159842
0.0009078581124
0.0009139396026
0.0009033591728
0.0008748828221
0.0008231692098
0.0007399697865
0.0006177447735
0.0004573126144
0.000278306741
0.0001216345268
2.670653563e-05
1.050295454e-06
1.410483683e-06
5.132921832e-05
0.0001903923267
0.0003697447145
0.0005268213162
0.0006358747204
0.0007004800358
0.0007332860199
0.0007456228757
0.0007452746444
0.000734596007
0.0007125823702
0.0006748452841
0.0006143636132
0.0005226505646
0.0003953859946
0.0002439122168
0.0001051375415
2.157436951e-05
1.054754897e-06
1.486717871e-06
5.286196245e-05
0.0001849957997
0.0003287390035
0.0004314886709
0.0004901492799
0.0005182964146
0.0005287641275
0.0005297486932
0.0005250388248
0.0005158288562
0.0005010681329
0.000477744427
0.0004417121994
0.0003857234777
0.0003025433089
0.0001929792455
8.318121357e-05
1.653124738e-05
1.547928613e-06
1.605767929e-06
5.368184257e-05
0.0001626660509
0.0002435186415
0.000282771688
0.0002980166483
0.000300594793
0.0002988563238
0.0002950755954
0.0002902352647
0.0002843101579
0.0002764563472
0.0002650517299
0.0002495298796
0.0002245453068
0.000185718125
0.0001280181559
6.044597419e-05
1.556699607e-05
5.591555557e-06
1.870289665e-06
5.082196641e-05
0.00010565018
0.0001225977915
0.000125852992
0.000125220584
0.0001215560526
0.0001189304946
0.0001166419138
0.0001145035033
0.0001123217286
0.0001097649715
0.0001062580904
0.0001029336408
9.64125831e-05
8.626493536e-05
7.024327727e-05
4.904606303e-05
3.057820129e-05
2.296126276e-05
4.960140851e-06
3.726137722e-05
4.575685681e-05
4.759731374e-05
4.784898046e-05
4.778603415e-05
4.70916212e-05
4.678902993e-05
4.659573253e-05
4.64302613e-05
4.628032804e-05
4.62118731e-05
4.61183553e-05
4.657601738e-05
4.739726959e-05
4.83768144e-05
5.030693993e-05
5.359393215e-05
6.391951758e-05
6.383687862e-05
2.670885324e-05
3.126431354e-05
2.969207234e-05
3.414863001e-05
3.568542845e-05
3.5501823e-05
3.422873199e-05
3.435924643e-05
3.450655788e-05
3.458713728e-05
3.46363176e-05
3.46836956e-05
3.502529147e-05
3.167959639e-05
3.485101738e-05
3.626913472e-05
3.687291103e-05
3.227811303e-05
3.190088284e-05
3.6246756e-05
)
;

boundaryField
{
    movingWall
    {
        type            nutkWallFunction;
        Cmu             0.09;
        kappa           0.41;
        E               9.8;
        value           nonuniform List<scalar> 
20
(
9.037246016e-08
3.820476681e-07
1.932402972e-09
8.908631125e-07
1.16721722e-06
1.118481293e-06
8.447121268e-07
8.428561204e-07
8.552527949e-07
8.580610695e-07
8.60035674e-07
8.564799253e-07
9.145060457e-07
2.782023562e-07
9.013109619e-07
1.165322252e-06
1.291218274e-06
4.053729729e-07
2.633418069e-07
1.722263278e-06
)
;
    }
    fixedWalls
    {
        type            nutkWallFunction;
        Cmu             0.09;
        kappa           0.41;
        E               9.8;
        value           nonuniform List<scalar> 
60
(
0
0
0
0
0
0
0
0
0
0
0
0
0
0
0
0
0
0
0
9.037246016e-08
0
0
0
0
0
0
0
0
0
0
0
0
0
0
0
0
0
0
0
1.722263278e-06
0
0
0
0
0
0
0
0
0
0
0
0
0
0
0
0
0
0
0
0
)
;
    }
    frontAndBack
    {
        type            empty;
    }
}


// ************************************************************************* //
