/*--------------------------------*- C++ -*----------------------------------*\
  =========                 |
  \\      /  F ield         | OpenFOAM: The Open Source CFD Toolbox
   \\    /   O peration     | Website:  https://openfoam.org
    \\  /    A nd           | Version:  dev
     \\/     M anipulation  |
\*---------------------------------------------------------------------------*/
FoamFile
{
    format      ascii;
    class       volScalarField;
    location    "0.2";
    object      omega;
}
// * * * * * * * * * * * * * * * * * * * * * * * * * * * * * * * * * * * * * //

dimensions      [0 0 -1 0 0 0 0];

internalField   nonuniform List<scalar> 
400
(
203.2758471
203.2758471
203.2758471
203.2758471
203.275847
203.275847
203.2758469
203.2758468
203.2758467
203.2758466
203.2758464
203.2758463
203.2758462
203.2758461
203.275846
203.2758459
203.2758459
203.2758458
203.2758458
203.2758458
203.2758471
57.12178326
44.06160809
41.34232659
40.43333759
40.02127024
39.75204954
39.51365029
39.27378094
39.03350017
38.84861139
38.762044
38.69787607
38.67495013
38.75060959
39.07428857
40.05305708
43.09757371
57.25247288
203.2758458
203.2758471
43.0279242
22.76014181
17.73362087
16.00224126
15.30068614
14.97843403
14.80399014
14.68734029
14.59643711
14.52984355
14.49655049
14.50099658
14.58834318
14.8648789
15.58802935
17.45481309
22.86580537
44.38059885
203.2758458
203.2758471
39.92496033
17.36292307
11.46401938
9.362508158
8.481955618
8.078853523
7.881647952
7.777374818
7.718339463
7.68998804
7.695259219
7.756368489
7.92993407
8.341788674
9.285740173
11.55839599
17.90806926
41.91108022
203.2758457
203.2758472
38.85144262
15.46164997
9.199829286
6.925566623
5.947192906
5.487197434
5.261516094
5.149389673
5.097374159
5.085052816
5.115805472
5.215744382
5.446493322
5.9408378
7.006973289
9.486437103
16.27599015
41.32638951
203.2758456
203.2758473
38.40537083
14.67897473
8.236897186
5.865698574
4.827868664
4.329429126
4.080842267
3.958553599
3.906892222
3.903099854
3.951079208
4.078185667
4.348239359
4.897702751
6.04404229
8.656451763
15.7078116
41.32117194
203.2758455
203.2758474
38.17860957
14.32268252
7.789605512
5.360386502
4.283995219
3.759223776
3.493783434
3.362978018
3.310249608
3.311912277
3.372248843
3.519249889
3.81814748
4.408287446
5.614464611
8.325034893
15.56004744
41.57189356
203.2758453
203.2758476
38.01931723
14.13624762
7.567609122
5.107690297
4.007964527
3.466290838
3.189555517
3.052884306
2.999361024
3.005100685
3.074701688
3.236752778
3.557674384
4.179439183
5.43317825
8.222584436
15.60442441
41.99674705
203.275845
203.2758478
37.86501798
14.0122964
7.44624174
4.977363117
3.867370219
3.317196728
3.034515056
2.894968057
2.841686364
2.850896744
2.927658256
3.101181478
3.439122745
4.086117742
5.379193878
8.236907303
15.76726402
42.60230212
203.2758447
203.2758482
37.68675106
13.9035986
7.368662625
4.908944809
3.800519008
3.249806916
2.966513413
2.827314159
2.775686437
2.788231369
2.870657982
3.052772701
3.403574636
4.070703618
5.398773216
8.327413153
16.03129102
43.43920065
203.2758442
203.2758485
37.4677992
13.78966945
7.311063137
4.87722739
3.781876062
3.238599454
2.96023767
2.824903565
2.776642626
2.792713704
2.879539092
3.067811691
3.428301694
4.112683324
5.475716026
8.486048904
16.4153103
44.60050418
203.2758436
203.275849
37.19528843
13.66426507
7.270445183
4.880914144
3.810502342
3.283231786
3.016091574
2.888954381
2.846587467
2.867306322
2.958123759
3.150926694
3.518738203
4.218565649
5.619377519
8.732259328
16.97246174
46.25062941
203.2758429
203.2758496
36.85743468
13.53443913
7.265694928
4.942589802
3.91357589
3.413643751
3.165566786
3.051974693
3.018665245
3.045813501
3.141182866
3.337989437
3.711997121
4.427219776
5.872590959
9.122558103
17.81429929
48.70052163
203.275842
203.2758503
36.44546186
13.43155557
7.348115457
5.129322264
4.163765937
3.705980308
3.487421437
3.394932612
3.375769583
3.413316032
3.516136727
3.719172124
4.101456159
4.836284448
6.341048712
9.78763299
19.17515699
52.56745293
203.2758408
203.2758512
35.96641163
13.45991086
7.660553151
5.602952316
4.735057501
4.342689656
4.170545172
4.111727483
4.116485766
4.173299114
4.29221505
4.511106502
4.912596335
5.683096256
7.28232523
11.03880058
21.57318995
59.05264483
203.2758392
203.2758522
35.47851436
13.88287468
8.595356789
6.808734329
6.104770957
5.826019078
5.735802463
5.735396114
5.788392155
5.886277191
6.045606795
6.311982144
6.768641868
7.625384514
9.405876489
13.69697147
26.18237761
70.06237947
203.2758375
203.2758536
35.58264907
15.80411427
11.55097944
10.31364388
9.947095544
9.93764897
10.02810869
10.16663652
10.33401377
10.5372079
10.81205244
11.23064451
11.83312556
12.94470431
15.1365919
20.34796903
35.55256388
86.3737751
203.2758353
203.2758554
39.56005409
24.92482241
23.3553292
23.50850211
23.96423715
24.88257179
25.51322479
26.04041827
26.52671932
27.02271076
27.61504416
28.47232091
29.19814003
30.96305329
33.98002522
40.2411749
55.51529576
101.669678
203.2758306
203.2758578
82.11332703
79.9631407
84.85069323
87.51500999
88.78777088
91.82954292
93.52116667
94.58530936
95.41637218
96.16261807
96.79418313
98.06365995
94.80585656
96.71804165
98.53357086
102.4454333
108.1581122
129.5320896
203.275819
264.9234339
250.8027005
239.104462
267.5759711
270.5639535
267.6712585
260.6572051
261.6962816
262.0742
262.1408046
262.1905688
262.1004362
264.0683003
242.7225658
267.9325552
270.9256408
273.3945591
243.2266337
243.1973106
203.2758034
)
;

boundaryField
{
    movingWall
    {
        beta1           0.075;
        blended         0;
        type            omegaWallFunction;
        value           nonuniform List<scalar> 
20
(
264.9234339
250.8027005
239.104462
267.5759711
270.5639535
267.6712585
260.6572051
261.6962816
262.0742
262.1408046
262.1905688
262.1004362
264.0683003
242.7225658
267.9325552
270.9256408
273.3945591
243.2266337
243.1973106
203.2758034
)
;
    }
    fixedWalls
    {
        beta1           0.075;
        blended         0;
        type            omegaWallFunction;
        value           nonuniform List<scalar> 
60
(
203.2758471
203.2758471
203.2758471
203.2758471
203.2758472
203.2758473
203.2758474
203.2758476
203.2758478
203.2758482
203.2758485
203.275849
203.2758496
203.2758503
203.2758512
203.2758522
203.2758536
203.2758554
203.2758578
264.9234339
203.2758458
203.2758458
203.2758458
203.2758457
203.2758456
203.2758455
203.2758453
203.275845
203.2758447
203.2758442
203.2758436
203.2758429
203.275842
203.2758408
203.2758392
203.2758375
203.2758353
203.2758306
203.275819
203.2758034
203.2758471
203.2758471
203.2758471
203.2758471
203.275847
203.275847
203.2758469
203.2758468
203.2758467
203.2758466
203.2758464
203.2758463
203.2758462
203.2758461
203.275846
203.2758459
203.2758459
203.2758458
203.2758458
203.2758458
)
;
    }
    frontAndBack
    {
        type            empty;
    }
}


// ************************************************************************* //
