/*--------------------------------*- C++ -*----------------------------------*\
  =========                 |
  \\      /  F ield         | OpenFOAM: The Open Source CFD Toolbox
   \\    /   O peration     | Website:  https://openfoam.org
    \\  /    A nd           | Version:  dev
     \\/     M anipulation  |
\*---------------------------------------------------------------------------*/
FoamFile
{
    format      ascii;
    class       volScalarField;
    location    "0.2";
    object      p;
}
// * * * * * * * * * * * * * * * * * * * * * * * * * * * * * * * * * * * * * //

dimensions      [1 -1 -2 0 0 0 0];

internalField   nonuniform List<scalar> 
400
(
99999.99973
99999.99973
99999.99974
99999.99975
99999.99978
99999.99982
99999.99987
99999.99994
100000
100000.0001
100000.0002
100000.0003
100000.0004
100000.0004
100000.0005
100000.0006
100000.0006
100000.0006
100000.0006
100000.0006
99999.99973
99999.99973
99999.99973
99999.99975
99999.99978
99999.99982
99999.99987
99999.99994
100000
100000.0001
100000.0002
100000.0003
100000.0004
100000.0004
100000.0005
100000.0006
100000.0006
100000.0006
100000.0006
100000.0006
99999.99972
99999.99972
99999.99973
99999.99975
99999.99977
99999.99982
99999.99987
99999.99993
100000
100000.0001
100000.0002
100000.0003
100000.0004
100000.0004
100000.0005
100000.0006
100000.0006
100000.0006
100000.0007
100000.0007
99999.9997
99999.9997
99999.99971
99999.99973
99999.99976
99999.9998
99999.99986
99999.99993
100000
100000.0001
100000.0002
100000.0003
100000.0003
100000.0004
100000.0005
100000.0006
100000.0006
100000.0007
100000.0007
100000.0007
99999.99966
99999.99966
99999.99967
99999.99968
99999.99972
99999.99977
99999.99983
99999.99991
99999.99999
100000.0001
100000.0002
100000.0003
100000.0004
100000.0004
100000.0005
100000.0006
100000.0007
100000.0007
100000.0007
100000.0008
99999.9996
99999.9996
99999.9996
99999.99962
99999.99965
99999.99971
99999.99978
99999.99987
99999.99996
100000.0001
100000.0002
100000.0003
100000.0004
100000.0005
100000.0006
100000.0007
100000.0008
100000.0008
100000.0008
100000.0008
99999.9995
99999.99951
99999.99951
99999.99951
99999.99955
99999.99961
99999.9997
99999.9998
99999.99991
100000
100000.0002
100000.0003
100000.0004
100000.0006
100000.0007
100000.0008
100000.0009
100000.0009
100000.001
100000.001
99999.99938
99999.99938
99999.99938
99999.99938
99999.99941
99999.99948
99999.99958
99999.9997
99999.99984
99999.99999
100000.0001
100000.0003
100000.0005
100000.0006
100000.0008
100000.0009
100000.001
100000.0011
100000.0011
100000.0012
99999.99921
99999.99921
99999.9992
99999.9992
99999.99924
99999.99931
99999.99943
99999.99958
99999.99975
99999.99994
100000.0001
100000.0003
100000.0006
100000.0008
100000.0009
100000.0011
100000.0012
100000.0013
100000.0014
100000.0014
99999.999
99999.999
99999.99899
99999.99898
99999.99902
99999.9991
99999.99925
99999.99943
99999.99964
99999.99987
100000.0001
100000.0004
100000.0006
100000.0009
100000.0011
100000.0013
100000.0015
100000.0016
100000.0017
100000.0017
99999.99874
99999.99873
99999.99872
99999.99871
99999.99875
99999.99886
99999.99903
99999.99925
99999.9995
99999.99979
100000.0001
100000.0004
100000.0007
100000.001
100000.0013
100000.0016
100000.0018
100000.0019
100000.002
100000.0021
99999.99842
99999.99841
99999.99839
99999.99838
99999.99843
99999.99856
99999.99877
99999.99904
99999.99935
99999.99968
100000
100000.0004
100000.0008
100000.0012
100000.0015
100000.0019
100000.0021
100000.0023
100000.0025
100000.0026
99999.99802
99999.99801
99999.99798
99999.99798
99999.99805
99999.99823
99999.99849
99999.99881
99999.99917
99999.99956
99999.99997
100000.0004
100000.0009
100000.0013
100000.0018
100000.0022
100000.0025
100000.0028
100000.0031
100000.0032
99999.99755
99999.99753
99999.99749
99999.9975
99999.99762
99999.99785
99999.99817
99999.99854
99999.99896
99999.9994
99999.99987
100000.0004
100000.0009
100000.0014
100000.002
100000.0025
100000.003
100000.0034
100000.0038
100000.004
99999.99696
99999.99694
99999.99691
99999.99694
99999.99713
99999.99744
99999.99783
99999.99826
99999.99873
99999.99921
99999.99973
100000.0003
100000.0008
100000.0015
100000.0021
100000.0028
100000.0034
100000.0041
100000.0047
100000.0051
99999.99625
99999.99622
99999.99621
99999.99632
99999.99662
99999.99703
99999.99748
99999.99797
99999.99847
99999.99899
99999.99954
100000.0001
100000.0007
100000.0014
100000.0021
100000.0029
100000.0038
100000.0046
100000.0056
100000.0063
99999.99532
99999.99536
99999.99541
99999.99567
99999.99611
99999.99662
99999.99714
99999.99766
99999.99819
99999.99874
99999.99931
99999.9999
100000.0005
100000.0012
100000.0019
100000.0028
100000.0038
100000.0049
100000.006
100000.0077
99999.99421
99999.99436
99999.99455
99999.995
99999.99561
99999.99623
99999.99679
99999.99734
99999.9979
99999.99847
99999.99905
99999.99965
100000.0003
100000.0009
100000.0016
100000.0024
100000.0034
100000.0045
100000.0053
100000.0098
99999.99236
99999.9932
99999.99363
99999.99424
99999.99508
99999.99584
99999.99644
99999.997
99999.9976
99999.99821
99999.99881
99999.99941
100000.0001
100000.0007
100000.0013
100000.002
100000.003
100000.0043
100000.0045
100000.0151
99999.99349
99999.99571
99999.99498
99999.99474
99999.99512
99999.99571
99999.9963
99999.99689
99999.99749
99999.99809
99999.99869
99999.99928
99999.99986
100000.0005
100000.0013
100000.002
100000.003
100000.005
100000.0093
100000.0217
)
;

boundaryField
{
    movingWall
    {
        type            zeroGradient;
    }
    fixedWalls
    {
        type            zeroGradient;
    }
    frontAndBack
    {
        type            empty;
    }
}


// ************************************************************************* //
