/*--------------------------------*- C++ -*----------------------------------*\
  =========                 |
  \\      /  F ield         | OpenFOAM: The Open Source CFD Toolbox
   \\    /   O peration     | Website:  https://openfoam.org
    \\  /    A nd           | Version:  dev
     \\/     M anipulation  |
\*---------------------------------------------------------------------------*/
FoamFile
{
    format      ascii;
    class       surfaceScalarField;
    location    "0.2";
    object      phi;
}
// * * * * * * * * * * * * * * * * * * * * * * * * * * * * * * * * * * * * * //

dimensions      [1 0 -1 0 0 0 0];

internalField   nonuniform List<scalar> 
760
(
-1.449184505e-08
1.449183356e-08
-3.369432867e-08
1.920250857e-08
-5.747428298e-08
2.377996211e-08
-8.413440506e-08
2.666011728e-08
-1.110953129e-07
2.696090295e-08
-1.360935419e-07
2.499822069e-08
-1.574331404e-07
2.133957629e-08
-1.739072084e-07
1.647406447e-08
-1.846539155e-07
1.074669206e-08
-1.891798772e-07
4.525958068e-09
-1.872351387e-07
-1.944735041e-09
-1.788049671e-07
-8.430147041e-09
-1.641998236e-07
-1.460514738e-08
-1.440696457e-07
-2.013018584e-08
-1.195004579e-07
-2.456919104e-08
-9.214510693e-08
-2.735535732e-08
-6.430455285e-08
-2.784055604e-08
-3.866547439e-08
-2.563907216e-08
-1.708020502e-08
-2.158527195e-08
-1.708019789e-08
-2.100896902e-08
3.550076415e-08
-4.536994696e-08
4.356351227e-08
-7.303201758e-08
5.144203799e-08
-1.033312682e-07
5.695935165e-08
-1.339899116e-07
5.761953551e-08
-1.625469128e-07
5.355520839e-08
-1.870022131e-07
4.579485606e-08
-2.058941723e-07
3.536599789e-08
-2.182493772e-07
2.310188091e-08
-2.234295047e-07
9.706077566e-09
-2.211503264e-07
-4.22390035e-09
-2.114672732e-07
-1.811320185e-08
-1.947576694e-07
-3.131474741e-08
-1.718202298e-07
-4.306764065e-08
-1.439633759e-07
-5.242605991e-08
-1.130868761e-07
-5.823182889e-08
-8.160725081e-08
-5.932016137e-08
-5.181224163e-08
-5.543410855e-08
-2.443276171e-08
-4.896479357e-08
-4.151297708e-08
-2.941585585e-08
6.491662202e-08
-6.053074286e-08
7.467840852e-08
-9.154162829e-08
8.245293043e-08
-1.228226623e-07
8.824039797e-08
-1.535851618e-07
8.838203591e-08
-1.822172946e-07
8.218732683e-08
-2.069514952e-07
7.052903927e-08
-2.26265047e-07
5.467953306e-08
-2.390312089e-07
3.586804767e-08
-2.445251992e-07
1.520009411e-08
-2.424283807e-07
-6.320727862e-09
-2.328232553e-07
-2.771831363e-08
-2.161925475e-07
-4.794547933e-08
-1.9344408e-07
-6.581610147e-08
-1.65890628e-07
-7.997949809e-08
-1.351108529e-07
-8.90115978e-08
-1.025635895e-07
-9.186744735e-08
-6.893168897e-08
-8.906607758e-08
-3.386188795e-08
-8.40346556e-08
-7.537490784e-08
-3.78840893e-08
1.02800731e-07
-7.688250681e-08
1.136768445e-07
-1.125481333e-07
1.181185865e-07
-1.457197185e-07
1.214119799e-07
-1.767640999e-07
1.194264047e-07
-2.05091075e-07
1.105142961e-07
-2.295165215e-07
9.495446608e-08
-2.48730747e-07
7.389375218e-08
-2.616151546e-07
4.875244602e-08
-2.674007173e-07
2.098565821e-08
-2.657412396e-07
-7.98020913e-09
-2.56729773e-07
-3.672977507e-08
-2.408716604e-07
-6.380359243e-08
-2.190135267e-07
-8.767425205e-08
-1.921813637e-07
-1.068116823e-07
-1.612739493e-07
-1.199190361e-07
-1.266097784e-07
-1.265316648e-07
-8.760061103e-08
-1.280753103e-07
-4.347604409e-08
-1.281592504e-07
-1.18850982e-07
-4.532943619e-08
1.481301937e-07
-9.188299814e-08
1.602304484e-07
-1.331237444e-07
1.593593518e-07
-1.695936658e-07
1.578819028e-07
-2.021727853e-07
1.520055143e-07
-2.310039358e-07
1.393454285e-07
-2.555195112e-07
1.194700319e-07
-2.747900859e-07
9.316430824e-08
-2.878722861e-07
6.183463847e-08
-2.940516607e-07
2.716502065e-08
-2.929819146e-07
-9.04996416e-09
-2.847228044e-07
-4.498889179e-08
-2.696813548e-07
-7.884504206e-08
-2.484648852e-07
-1.088907194e-07
-2.216312837e-07
-1.336452921e-07
-1.893443393e-07
-1.522060053e-07
-1.510427184e-07
-1.648333386e-07
-1.055109622e-07
-1.736070942e-07
-5.239260946e-08
-1.812775963e-07
-1.712435806e-07
-5.217210493e-08
2.003023095e-07
-1.058816379e-07
2.139400076e-07
-1.532735258e-07
2.067512394e-07
-1.94312567e-07
1.989209423e-07
-2.298707182e-07
1.875636547e-07
-2.604484736e-07
1.699231653e-07
-2.859509648e-07
1.449725018e-07
-3.058563954e-07
1.130697248e-07
-3.194928198e-07
7.547104955e-08
-3.26283581e-07
3.395576455e-08
-3.259108982e-07
-9.422655367e-09
-3.18362017e-07
-5.253777805e-08
-3.03850444e-07
-9.33566148e-08
-2.826342703e-07
-1.301068908e-07
-2.547509976e-07
-1.615285711e-07
-2.197310142e-07
-1.872260115e-07
-1.764565556e-07
-2.081078408e-07
-1.235668122e-07
-2.264968241e-07
-6.136195971e-08
-2.434824467e-07
-2.326054887e-07
-5.932737076e-08
2.596296975e-07
-1.204443169e-07
2.750569531e-07
-1.745926476e-07
2.608995662e-07
-2.212577378e-07
2.455860191e-07
-2.610690223e-07
2.273749162e-07
-2.946123003e-07
2.034664169e-07
-3.220971132e-07
1.724572948e-07
-3.433635145e-07
1.343361073e-07
-3.580418628e-07
9.014938954e-08
-3.657411066e-07
4.165499608e-08
-3.661927265e-07
-8.971049227e-09
-3.592886994e-07
-5.94418057e-08
-3.449959125e-07
-1.076493937e-07
-3.231772477e-07
-1.519255534e-07
-2.933603832e-07
-1.913454512e-07
-2.545458196e-07
-2.260405909e-07
-2.052339683e-07
-2.574196909e-07
-1.440273538e-07
-2.877034019e-07
-7.167831286e-08
-3.158315057e-07
-3.042838031e-07
-6.770858915e-08
3.273382705e-07
-1.3729544e-07
3.446437978e-07
-1.991163927e-07
3.227204886e-07
-2.52379352e-07
2.988489537e-07
-2.974680646e-07
2.72463609e-07
-3.349522408e-07
2.409505835e-07
-3.652529827e-07
2.027580343e-07
-3.885324717e-07
1.576155743e-07
-4.047311949e-07
1.063481154e-07
-4.136701485e-07
5.059394089e-08
-4.151460952e-07
-7.495111961e-09
-4.089483456e-07
-6.563955142e-08
-3.947742013e-07
-1.218235383e-07
-3.720723435e-07
-1.74627416e-07
-3.398596541e-07
-2.235581456e-07
-2.966082932e-07
-2.692919442e-07
-2.403725934e-07
-3.136553488e-07
-1.694756488e-07
-3.586003241e-07
-8.47301728e-08
-4.005770074e-07
-3.890140227e-07
-7.813479407e-08
4.054730561e-07
-1.580139539e-07
4.245229288e-07
-2.288015575e-07
3.935080715e-07
-2.896025091e-07
3.596498933e-07
-3.407000238e-07
3.235611162e-07
-3.827212416e-07
2.829718098e-07
-4.163297707e-07
2.363665681e-07
-4.420303844e-07
1.833161889e-07
-4.60098875e-07
1.244166081e-07
-4.705958471e-07
6.109090725e-08
-4.73402755e-07
-4.688223285e-09
-4.68211023e-07
-7.083128513e-08
-4.544400654e-07
-1.355944981e-07
-4.31101983e-07
-1.9796551e-07
-3.96646777e-07
-2.580133549e-07
-3.48873378e-07
-3.170653137e-07
-2.850614278e-07
-3.774672298e-07
-2.026755229e-07
-4.409862209e-07
-1.020424355e-07
-5.012100798e-07
-4.910564918e-07
-9.140117455e-08
4.968741961e-07
-1.84051619e-07
5.171733637e-07
-2.653742518e-07
4.748307056e-07
-3.345166172e-07
4.287922602e-07
-3.919333353e-07
3.809778546e-07
-4.385576302e-07
3.295961261e-07
-4.754680784e-07
2.732770321e-07
-5.036160889e-07
2.11464196e-07
-5.236757916e-07
1.444763045e-07
-5.359904414e-07
7.340554271e-08
-5.405560534e-07
-1.226401048e-10
-5.36983263e-07
-7.440408965e-08
-5.244162348e-07
-1.481615061e-07
-5.014008491e-07
-2.20980875e-07
-4.657087715e-07
-2.937054267e-07
-4.141720716e-07
-3.686019961e-07
-3.426858321e-07
-4.489534725e-07
-2.468643356e-07
-5.368077335e-07
-1.255566426e-07
-6.225177484e-07
-6.16613123e-07
-1.083928162e-07
6.052669802e-07
-2.168568819e-07
6.256374292e-07
-3.103213933e-07
5.682952279e-07
-3.882070222e-07
5.066779058e-07
-4.516029206e-07
4.443737644e-07
-5.021891074e-07
3.801823314e-07
-5.41766447e-07
3.128543772e-07
-5.719093088e-07
2.416070538e-07
-5.93785214e-07
1.663521938e-07
-6.080777756e-07
8.769809133e-08
-6.149411387e-07
6.740704361e-09
-6.139413805e-07
-7.540384843e-08
-6.039749458e-07
-1.581279192e-07
-5.831123393e-07
-2.418434379e-07
-5.48325796e-07
-3.284919441e-07
-4.950933495e-07
-4.218344549e-07
-4.170368374e-07
-5.2701005e-07
-3.063282391e-07
-6.47516378e-07
-1.581148934e-07
-7.70731112e-07
-7.747280154e-07
-1.302510336e-07
7.35518002e-07
-2.580567177e-07
7.534431287e-07
-3.649333436e-07
6.751718685e-07
-4.511571394e-07
5.929017148e-07
-5.192502581e-07
5.124669093e-07
-5.722934007e-07
4.332254896e-07
-6.1320987e-07
3.537708312e-07
-6.443943724e-07
2.727915454e-07
-6.676007865e-07
1.895586012e-07
-6.839098961e-07
1.040072068e-07
-6.93688014e-07
1.651885111e-08
-6.965236684e-07
-7.256816511e-08
-6.911427194e-07
-1.635088322e-07
-6.752125094e-07
-2.577736245e-07
-6.448851202e-07
-3.588193152e-07
-5.939473368e-07
-4.727722536e-07
-5.126215596e-07
-6.083358826e-07
-3.869855555e-07
-7.731523384e-07
-2.045840741e-07
-9.531326769e-07
-9.793121275e-07
-1.586652745e-07
8.941832749e-07
-3.097259241e-07
9.045037697e-07
-4.303787311e-07
7.958246901e-07
-5.232223582e-07
6.857453678e-07
-5.935287675e-07
5.827733347e-07
-6.466177814e-07
4.863145213e-07
-6.869183573e-07
3.940714058e-07
-7.177677043e-07
3.036408792e-07
-7.415475229e-07
2.133384182e-07
-7.597747834e-07
1.222344756e-07
-7.730940573e-07
2.983815291e-08
-7.812285698e-07
-6.443360653e-08
-7.828903715e-07
-1.618469897e-07
-7.755749716e-07
-2.65089022e-07
-7.548553056e-07
-3.795390389e-07
-7.128356293e-07
-5.147919777e-07
-6.353907391e-07
-6.857807398e-07
-4.98797743e-07
-9.097452724e-07
-2.742683593e-07
-1.177662097e-06
-1.253580502e-06
-1.964172414e-07
1.09060052e-06
-3.747995829e-07
1.082886111e-06
-5.07857023e-07
9.288821513e-07
-6.037832195e-07
7.816715748e-07
-6.725101575e-07
6.515002684e-07
-7.22438347e-07
5.36242715e-07
-7.596956356e-07
4.313286926e-07
-7.885186029e-07
3.324638479e-07
-8.118781052e-07
2.36697931e-07
-8.317435268e-07
1.42099909e-07
-8.491279889e-07
4.722261526e-08
-8.64054686e-07
-4.950691364e-08
-8.754897473e-07
-1.504119446e-07
-8.81228497e-07
-2.593502626e-07
-8.769371564e-07
-3.838303682e-07
-8.537742512e-07
-5.379548609e-07
-7.933823853e-07
-7.461725286e-07
-6.58629167e-07
-1.044498523e-06
-3.866285915e-07
-1.449662715e-06
-1.640209089e-06
-2.493285708e-07
1.339929093e-06
-4.581600941e-07
1.291717665e-06
-5.991496589e-07
1.06987177e-06
-6.922921498e-07
8.748140902e-07
-7.542856571e-07
7.134937621e-07
-7.971194597e-07
5.790764706e-07
-8.284758092e-07
4.626850069e-07
-8.532347387e-07
3.572228067e-07
-8.748402849e-07
2.583035255e-07
-8.957261091e-07
1.629857755e-07
-9.173940842e-07
6.889062066e-08
-9.404042753e-07
-2.649666875e-08
-9.643664863e-07
-1.264496488e-07
-9.882206823e-07
-2.354960083e-07
-1.009051392e-06
-3.629996261e-07
-1.018918013e-06
-5.280882337e-07
-9.975701398e-07
-7.675203973e-07
-8.943781886e-07
-1.147690593e-06
-5.815601123e-07
-1.762480793e-06
-2.221769248e-06
-3.273221096e-07
1.667251213e-06
-5.671928046e-07
1.531588363e-06
-7.075058709e-07
1.210184849e-06
-7.888093843e-07
9.561176216e-07
-8.369522483e-07
7.616365992e-07
-8.674239184e-07
6.095481688e-07
-8.890341122e-07
4.842952146e-07
-9.068281386e-07
3.750168029e-07
-9.245248217e-07
2.760001938e-07
-9.450240976e-07
1.834850805e-07
-9.704484611e-07
9.431501775e-08
-1.002144068e-06
5.198942025e-09
-1.040776577e-06
-8.781711702e-08
-1.087995817e-06
-1.882767192e-07
-1.144854089e-06
-3.06141277e-07
-1.208000761e-06
-4.649414779e-07
-1.26204766e-06
-7.134735136e-07
-1.247618206e-06
-1.16212008e-06
-9.234591338e-07
-2.086639807e-06
-3.145228277e-06
-4.713634314e-07
2.138614682e-06
-7.24570529e-07
1.78479545e-06
-8.386457296e-07
1.324259969e-06
-8.900086903e-07
1.007480606e-06
-9.109903377e-07
7.826182955e-07
-9.19276417e-07
6.178342033e-07
-9.241346638e-07
4.891533788e-07
-9.294463714e-07
3.803285022e-07
-9.387963318e-07
2.853501956e-07
-9.554841132e-07
2.001729099e-07
-9.822547522e-07
1.210857033e-07
-1.021053261e-06
4.39975129e-08
-1.072652638e-06
-3.621767139e-08
-1.143543392e-06
-1.173858449e-07
-1.242124595e-06
-2.075599924e-07
-1.372465805e-06
-3.346002779e-07
-1.530673656e-06
-5.552656999e-07
-1.672956802e-06
-1.019836802e-06
-1.451369747e-06
-2.308226775e-06
-4.596598213e-06
-7.151382496e-07
2.853752938e-06
-9.173403925e-07
1.986997652e-06
-9.381142644e-07
1.345033867e-06
-9.2041298e-07
9.897793126e-07
-8.817966324e-07
7.440018946e-07
-8.449255603e-07
5.809630442e-07
-8.179751596e-07
4.622029345e-07
-7.975668054e-07
3.599201489e-07
-7.868893194e-07
2.746727207e-07
-7.89751703e-07
2.030352872e-07
-8.088815622e-07
1.402155683e-07
-8.490258028e-07
8.414183007e-08
-9.003456742e-07
1.510240929e-08
-9.792443847e-07
-3.848695402e-08
-1.105857831e-06
-8.094649235e-08
-1.279284694e-06
-1.611733871e-07
-1.479627501e-06
-3.549226944e-07
-1.586476032e-06
-9.129882196e-07
-1.673216137e-06
-2.221486713e-06
-6.269814333e-06
-6.531979137e-07
3.506950795e-06
-5.990386254e-07
1.932838518e-06
-3.419403437e-07
1.087935671e-06
-1.328869729e-07
7.807260296e-07
6.479213734e-08
5.463227372e-07
2.281563986e-07
4.175986381e-07
3.453412587e-07
3.450179347e-07
4.406103386e-07
2.64651048e-07
5.113518075e-07
2.039312351e-07
5.563378348e-07
1.580492052e-07
5.788011562e-07
1.177522227e-07
5.598959837e-07
1.030470861e-07
5.47835188e-07
2.716333171e-08
5.167558136e-07
-7.407415966e-09
4.343343211e-07
1.475188117e-09
3.282592266e-07
-5.509817152e-08
2.270130876e-07
-2.536765095e-07
-1.697974185e-09
-6.842772345e-07
1.194507366e-07
-2.342635356e-06
-6.150363768e-06
3.506950741e-06
5.439789172e-06
6.527724783e-06
7.308450735e-06
7.854773383e-06
8.272371927e-06
8.617389803e-06
8.882040801e-06
9.085971969e-06
9.244021127e-06
9.361773351e-06
9.464820441e-06
9.491983807e-06
9.484576413e-06
9.486051532e-06
9.430953246e-06
9.177276725e-06
8.492999528e-06
6.150364034e-06
)
;

boundaryField
{
    movingWall
    {
        type            calculated;
        value           uniform 0;
    }
    fixedWalls
    {
        type            calculated;
        value           uniform 0;
    }
    frontAndBack
    {
        type            empty;
        value           nonuniform List<scalar> 0();
    }
}


// ************************************************************************* //
