/*--------------------------------*- C++ -*----------------------------------*\
  =========                 |
  \\      /  F ield         | OpenFOAM: The Open Source CFD Toolbox
   \\    /   O peration     | Website:  https://openfoam.org
    \\  /    A nd           | Version:  dev
     \\/     M anipulation  |
\*---------------------------------------------------------------------------*/
FoamFile
{
    format      ascii;
    class       volScalarField;
    location    "0.2";
    object      T;
}
// * * * * * * * * * * * * * * * * * * * * * * * * * * * * * * * * * * * * * //

dimensions      [0 0 0 1 0 0 0];

internalField   nonuniform List<scalar> 
400
(
299.9999997
299.9999997
299.9999997
299.9999998
299.9999998
299.9999998
299.9999999
299.9999999
300
300.0000001
300.0000001
300.0000002
300.0000003
300.0000004
300.0000004
300.0000005
300.0000005
300.0000005
300.0000005
300.0000005
299.9999997
299.9999997
299.9999997
299.9999998
299.9999998
299.9999998
299.9999999
299.9999999
300
300.0000001
300.0000001
300.0000002
300.0000003
300.0000004
300.0000004
300.0000005
300.0000005
300.0000005
300.0000005
300.0000005
299.9999997
299.9999997
299.9999997
299.9999997
299.9999998
299.9999998
299.9999999
299.9999999
300
300.0000001
300.0000001
300.0000002
300.0000003
300.0000004
300.0000004
300.0000005
300.0000005
300.0000005
300.0000005
300.0000006
299.9999997
299.9999997
299.9999997
299.9999997
299.9999998
299.9999998
299.9999998
299.9999999
300
300
300.0000001
300.0000002
300.0000003
300.0000004
300.0000004
300.0000005
300.0000005
300.0000005
300.0000006
300.0000006
299.9999997
299.9999997
299.9999997
299.9999997
299.9999997
299.9999998
299.9999998
299.9999999
300
300
300.0000001
300.0000002
300.0000003
300.0000004
300.0000004
300.0000005
300.0000005
300.0000006
300.0000006
300.0000006
299.9999996
299.9999996
299.9999997
299.9999997
299.9999997
299.9999997
299.9999998
299.9999999
299.9999999
300
300.0000001
300.0000002
300.0000003
300.0000004
300.0000005
300.0000005
300.0000006
300.0000006
300.0000007
300.0000007
299.9999995
299.9999996
299.9999996
299.9999996
299.9999996
299.9999997
299.9999997
299.9999998
299.9999999
300
300.0000001
300.0000002
300.0000003
300.0000004
300.0000005
300.0000006
300.0000007
300.0000007
300.0000008
300.0000008
299.9999994
299.9999995
299.9999995
299.9999995
299.9999995
299.9999996
299.9999997
299.9999998
299.9999999
300
300.0000001
300.0000002
300.0000003
300.0000005
300.0000006
300.0000007
300.0000008
300.0000008
300.0000009
300.000001
299.9999993
299.9999993
299.9999994
299.9999994
299.9999994
299.9999995
299.9999996
299.9999997
299.9999998
299.9999999
300.0000001
300.0000002
300.0000004
300.0000005
300.0000006
300.0000008
300.0000009
300.000001
300.0000011
300.0000012
299.9999991
299.9999992
299.9999992
299.9999992
299.9999993
299.9999994
299.9999995
299.9999996
299.9999997
299.9999999
300.0000001
300.0000002
300.0000004
300.0000006
300.0000007
300.0000009
300.000001
300.0000012
300.0000013
300.0000014
299.9999989
299.9999989
299.999999
299.999999
299.9999991
299.9999992
299.9999993
299.9999995
299.9999996
299.9999998
300
300.0000002
300.0000004
300.0000006
300.0000008
300.000001
300.0000012
300.0000014
300.0000016
300.0000017
299.9999986
299.9999987
299.9999988
299.9999988
299.9999989
299.999999
299.9999992
299.9999993
299.9999995
299.9999998
300
300.0000002
300.0000005
300.0000007
300.0000009
300.0000012
300.0000014
300.0000017
300.000002
300.0000022
299.9999983
299.9999984
299.9999985
299.9999986
299.9999987
299.9999988
299.999999
299.9999992
299.9999994
299.9999997
299.9999999
300.0000002
300.0000005
300.0000008
300.0000011
300.0000013
300.0000017
300.000002
300.0000024
300.0000027
299.9999979
299.999998
299.9999981
299.9999983
299.9999984
299.9999986
299.9999988
299.999999
299.9999993
299.9999996
299.9999999
300.0000002
300.0000005
300.0000008
300.0000012
300.0000015
300.0000019
300.0000024
300.0000029
300.0000033
299.9999974
299.9999976
299.9999978
299.9999979
299.9999981
299.9999983
299.9999986
299.9999988
299.9999991
299.9999994
299.9999998
300.0000001
300.0000005
300.0000009
300.0000012
300.0000017
300.0000022
300.0000028
300.0000036
300.0000042
299.9999969
299.9999971
299.9999973
299.9999976
299.9999978
299.999998
299.9999983
299.9999986
299.9999989
299.9999993
299.9999997
300.0000001
300.0000005
300.0000009
300.0000013
300.0000018
300.0000024
300.0000032
300.0000043
300.0000054
299.9999961
299.9999965
299.9999968
299.9999971
299.9999973
299.9999976
299.9999979
299.9999982
299.9999986
299.999999
299.9999995
299.9999999
300.0000004
300.0000008
300.0000013
300.0000018
300.0000024
300.0000034
300.0000047
300.0000061
299.9999955
299.9999958
299.9999961
299.9999964
299.9999966
299.9999969
299.9999972
299.9999976
299.9999981
299.9999986
299.999999
299.9999996
300.0000001
300.0000006
300.000001
300.0000015
300.0000022
300.0000031
300.000004
300.0000057
299.9999934
299.9999942
299.9999944
299.9999944
299.9999946
299.9999948
299.9999951
299.9999956
299.9999961
299.9999966
299.9999971
299.9999977
299.9999983
299.9999989
299.9999993
299.9999997
300.0000003
300.0000013
300.0000012
300.0000044
299.9999905
299.999991
299.9999901
299.9999883
299.9999873
299.9999869
299.9999866
299.9999865
299.9999865
299.9999867
299.9999869
299.9999873
299.9999876
299.9999881
299.9999886
299.9999893
299.9999902
299.9999931
299.9999953
300.0000014
)
;

boundaryField
{
    movingWall
    {
        type            zeroGradient;
    }
    fixedWalls
    {
        type            zeroGradient;
    }
    frontAndBack
    {
        type            empty;
    }
}


// ************************************************************************* //
