/*--------------------------------*- C++ -*----------------------------------*\
  =========                 |
  \\      /  F ield         | OpenFOAM: The Open Source CFD Toolbox
   \\    /   O peration     | Website:  https://openfoam.org
    \\  /    A nd           | Version:  dev
     \\/     M anipulation  |
\*---------------------------------------------------------------------------*/
FoamFile
{
    format      ascii;
    class       volVectorField;
    location    "0.2";
    object      U;
}
// * * * * * * * * * * * * * * * * * * * * * * * * * * * * * * * * * * * * * //

dimensions      [0 1 -1 0 0 0 0];

internalField   nonuniform List<vector> 
400
(
(-0.0001194442819 0.0001178406489 0)
(-0.0004101838548 0.0001576388552 0)
(-0.0007827374189 0.0001905199348 0)
(-0.001221185498 0.0002055755538 0)
(-0.001687457389 0.0002015407907 0)
(-0.002138505359 0.0001833367987 0)
(-0.002540169119 0.0001552528159 0)
(-0.002867407452 0.0001197560837 0)
(-0.003104259689 7.817754944e-05 0)
(-0.003234847242 3.386681293e-05 0)
(-0.003258025567 -1.26469194e-05 0)
(-0.003167848511 -5.978179423e-05 0)
(-0.00296828724 -0.0001047320994 0)
(-0.002667381278 -0.0001457003638 0)
(-0.002279890523 -0.0001804073462 0)
(-0.001829241953 -0.0002056942579 0)
(-0.001349675111 -0.0002164667523 0)
(-0.0008854213081 -0.0002070272428 0)
(-0.000476544583 -0.0001778822309 0)
(-0.0001417965677 -0.0001392716395 0)
(-0.0001742002492 0.0004203382516 0)
(-0.0005752376637 0.0005412253589 0)
(-0.001016440578 0.0006578553087 0)
(-0.001518213472 0.0007338608278 0)
(-0.002052086798 0.0007386244924 0)
(-0.002569941107 0.0006805450845 0)
(-0.003032096528 0.0005775524967 0)
(-0.003409213446 0.0004437771459 0)
(-0.003680832431 0.000288871447 0)
(-0.003833048424 0.0001209036182 0)
(-0.003858302701 -5.343176279e-05 0)
(-0.003754371982 -0.0002278587655 0)
(-0.003524987716 -0.0003949766769 0)
(-0.003180050389 -0.0005460898119 0)
(-0.002737290475 -0.0006697627921 0)
(-0.002223873437 -0.0007498701258 0)
(-0.001678185023 -0.0007664569937 0)
(-0.00114793856 -0.000709365381 0)
(-0.0006618552657 -0.0006078558241 0)
(-0.0002031005156 -0.0004930301512 0)
(-0.0002411637068 0.0008545820081 0)
(-0.0007892933357 0.001006772888 0)
(-0.001317986073 0.0011537234 0)
(-0.001848998513 0.001263448517 0)
(-0.002389915844 0.001276906797 0)
(-0.002910378492 0.001188457442 0)
(-0.003377403747 0.001017294883 0)
(-0.003762267172 0.0007859302155 0)
(-0.004042286252 0.0005134569618 0)
(-0.0042015627 0.0002156455675 0)
(-0.004231199238 -9.395031173e-05 0)
(-0.004129153855 -0.0004023723028 0)
(-0.003900223824 -0.0006952666892 0)
(-0.003556308659 -0.000955490877 0)
(-0.003116371429 -0.001161800843 0)
(-0.00260557793 -0.001289112064 0)
(-0.002053795602 -0.001315475728 0)
(-0.001488896146 -0.001243997703 0)
(-0.0009017936154 -0.001131413922 0)
(-0.0002774345197 -0.0009946073222 0)
(-0.0003031614032 0.00143693052 0)
(-0.001014881611 0.001605621113 0)
(-0.001655257829 0.00171406295 0)
(-0.00223562115 0.001801717523 0)
(-0.002790091216 0.001794430015 0)
(-0.003308495207 0.00166893794 0)
(-0.003769997461 0.001435064641 0)
(-0.004151737943 0.001115063121 0)
(-0.004432464053 0.0007331612711 0)
(-0.004595686628 0.0003122382014 0)
(-0.00463173674 -0.0001264291809 0)
(-0.004538443445 -0.0005620544056 0)
(-0.004321071226 -0.0009726436972 0)
(-0.003991469325 -0.001333902422 0)
(-0.003565996938 -0.001619507848 0)
(-0.003062425029 -0.00180451917 0)
(-0.002496625521 -0.001876015885 0)
(-0.001874046788 -0.00185420824 0)
(-0.001157434697 -0.001807974533 0)
(-0.0003477321562 -0.001663342999 0)
(-0.0003544635612 0.002157344328 0)
(-0.001213372931 0.002345292616 0)
(-0.001976307421 0.002373584809 0)
(-0.002629085961 0.002393825785 0)
(-0.003220152427 0.002332423624 0)
(-0.003753307466 0.002151740138 0)
(-0.004218698496 0.001849205511 0)
(-0.004601234654 0.001441553956 0)
(-0.004884070469 0.0009538722432 0)
(-0.005052476555 0.0004139814659 0)
(-0.005097140692 -0.0001497561011 0)
(-0.00501558797 -0.0007089071471 0)
(-0.00481212329 -0.001234669139 0)
(-0.004495897413 -0.0016981498 0)
(-0.004077527332 -0.002072586837 0)
(-0.003565249144 -0.002338849386 0)
(-0.002961660253 -0.002496463958 0)
(-0.002255500714 -0.002579064599 0)
(-0.001393867429 -0.002648062647 0)
(-0.0004105059167 -0.002492382309 0)
(-0.0004016194316 0.002999451434 0)
(-0.001392412683 0.00321137308 0)
(-0.00228125019 0.003137325012 0)
(-0.003026067557 0.003058958478 0)
(-0.0036786745 0.002914723259 0)
(-0.004249807738 0.002658080976 0)
(-0.00473714721 0.002275127593 0)
(-0.005132728564 0.001775230655 0)
(-0.005425312649 0.001181530916 0)
(-0.005603606332 0.0005244117135 0)
(-0.005659689275 -0.0001623270845 0)
(-0.005590698078 -0.0008439929818 0)
(-0.005398732624 -0.001486803192 0)
(-0.005088381991 -0.002059965091 0)
(-0.004663039615 -0.002539528858 0)
(-0.004121484556 -0.002914636836 0)
(-0.003455590196 -0.00319670765 0)
(-0.002643479427 -0.003426541177 0)
(-0.001627183751 -0.003642813003 0)
(-0.000475140115 -0.003473454284 0)
(-0.0004531597183 0.003960895121 0)
(-0.001578014131 0.004200626761 0)
(-0.00259837463 0.004011320762 0)
(-0.003451289407 0.003812725406 0)
(-0.004187149158 0.003561294595 0)
(-0.004818330639 0.003207274134 0)
(-0.005346699837 0.002728503729 0)
(-0.005769953549 0.002127335945 0)
(-0.006082497843 0.001423562646 0)
(-0.006277279988 0.0006480380011 0)
(-0.006348434879 -0.0001621829222 0)
(-0.006292712714 -0.0009683627992 0)
(-0.00610927768 -0.001734136478 0)
(-0.005797216668 -0.002429332799 0)
(-0.005352262249 -0.003034944254 0)
(-0.004764347363 -0.003549050067 0)
(-0.004016547883 -0.003992726837 0)
(-0.003079731537 -0.004407689242 0)
(-0.001893282696 -0.004799987677 0)
(-0.0005529360673 -0.00461857903 0)
(-0.0005159015427 0.005055475955 0)
(-0.001796075624 0.005324804868 0)
(-0.002962864313 0.005008300535 0)
(-0.003939753009 0.004671714637 0)
(-0.004776776945 0.004290895634 0)
(-0.00548573427 0.003817404592 0)
(-0.006070824555 0.003224666543 0)
(-0.006534456286 0.002509632556 0)
(-0.006876548048 0.001688316739 0)
(-0.007094678902 0.0007903025677 0)
(-0.007185464115 -0.0001465160777 0)
(-0.007145364226 -0.001082062109 0)
(-0.006970305576 -0.001980104685 0)
(-0.006653448884 -0.002813497541 0)
(-0.006182594062 -0.003569759476 0)
(-0.005538701595 -0.004255969329 0)
(-0.004695757678 -0.004900734708 0)
(-0.003615987558 -0.005542345525 0)
(-0.00223017921 -0.006148379823 0)
(-0.0006544771939 -0.005963105646 0)
(-0.00059580926 0.006311720751 0)
(-0.002069072665 0.006609409791 0)
(-0.003407999202 0.006147842826 0)
(-0.004526366508 0.005652873822 0)
(-0.005478534784 0.005119071377 0)
(-0.006276703223 0.004502378688 0)
(-0.006927830574 0.003775381046 0)
(-0.00743945599 0.002931575987 0)
(-0.007817470188 0.001983180008 0)
(-0.008064588562 0.0009569321081 0)
(-0.00818034182 -0.0001109864945 0)
(-0.008161129439 -0.001182152095 0)
(-0.00799961448 -0.002223419406 0)
(-0.007682760475 -0.003213188861 0)
(-0.007189768663 -0.004147285907 0)
(-0.006491027405 -0.005042574501 0)
(-0.005548028266 -0.005934971254 0)
(-0.004307422973 -0.006858580532 0)
(-0.002677574108 -0.00773780085 0)
(-0.0007918400436 -0.007566857174 0)
(-0.0006992524739 0.007771960468 0)
(-0.002418179296 0.008092021729 0)
(-0.003963807374 0.007455402977 0)
(-0.005241301551 0.006772127309 0)
(-0.006316702792 0.006055659614 0)
(-0.007206676195 0.00526862166 0)
(-0.007923995758 0.004385392618 0)
(-0.008483515215 0.00339732345 0)
(-0.008898513353 0.002312499954 0)
(-0.009177758765 0.001153076186 0)
(-0.009324310806 -4.923433779e-05 0)
(-0.009334938201 -0.00126090346 0)
(-0.009199236638 -0.002455087396 0)
(-0.008897804658 -0.003618672788 0)
(-0.008400182492 -0.004758569553 0)
(-0.007663134026 -0.005904480338 0)
(-0.006628796187 -0.007103581556 0)
(-0.005215102322 -0.008389976988 0)
(-0.00328373218 -0.009639472555 0)
(-0.0009819804628 -0.009518552172 0)
(-0.0008342057727 0.009493057838 0)
(-0.002866543665 0.009820777255 0)
(-0.004658468498 0.008959513318 0)
(-0.006108073868 0.00804117403 0)
(-0.007304605838 0.007101453273 0)
(-0.008276698456 0.006111879215 0)
(-0.009048590179 0.005049589933 0)
(-0.009646245445 0.003903435466 0)
(-0.01009255219 0.002675966132 0)
(-0.010403612 0.00138248132 0)
(-0.010586832 4.71894626e-05 0)
(-0.01064005786 -0.001304712634 0)
(-0.01055039198 -0.00265617589 0)
(-0.01029235367 -0.00400620048 0)
(-0.009825005523 -0.005377358648 0)
(-0.009087840374 -0.00681916233 0)
(-0.007994242809 -0.008400638895 0)
(-0.006413454125 -0.01016835702 0)
(-0.004115403708 -0.01194703141 0)
(-0.0012538816 -0.01194662422 0)
(-0.001012112749 0.01154969399 0)
(-0.003443551834 0.0118531491 0)
(-0.005520585937 0.01068673544 0)
(-0.007142553998 0.009461677887 0)
(-0.008441892122 0.008243454426 0)
(-0.009470555711 0.007013912156 0)
(-0.01027198298 0.00575095141 0)
(-0.01088778796 0.004437642286 0)
(-0.011352764 0.003067853025 0)
(-0.01169157624 0.001647027879 0)
(-0.01191688406 0.0001886205432 0)
(-0.01202863954 -0.001293956802 0)
(-0.01201269414 -0.002796996752 0)
(-0.01183888427 -0.004335765159 0)
(-0.01145661415 -0.005955062589 0)
(-0.01078616807 -0.007736391827 0)
(-0.009702785651 -0.009792043229 0)
(-0.008000892636 -0.01221070827 0)
(-0.005263563126 -0.01477584031 0)
(-0.001679756279 -0.015040815 0)
(-0.001251449109 0.01404131016 0)
(-0.004191436136 0.01425487976 0)
(-0.006581906662 0.01265400597 0)
(-0.008352493482 0.01101708609 0)
(-0.009713655137 0.009449541043 0)
(-0.01075569422 0.007940629743 0)
(-0.01154896282 0.006460637985 0)
(-0.01215416127 0.004979415735 0)
(-0.01261929611 0.003477259004 0)
(-0.01297826355 0.001946314952 0)
(-0.01324987158 0.0003862357079 0)
(-0.01343767934 -0.001204396685 0)
(-0.01352851857 -0.002838245551 0)
(-0.01349086534 -0.004550586852 0)
(-0.0132687216 -0.006416087276 0)
(-0.01276655799 -0.008565882232 0)
(-0.01181857022 -0.01119275386 0)
(-0.01011810104 -0.01449176715 0)
(-0.006919930151 -0.01826224978 0)
(-0.002352399349 -0.01910444944 0)
(-0.001584765279 0.01711515685 0)
(-0.005175980864 0.0170984384 0)
(-0.007881052476 0.01485555942 0)
(-0.009738049191 0.01266194343 0)
(-0.01109405414 0.01066429409 0)
(-0.01209029644 0.008842278436 0)
(-0.01282779998 0.007139918137 0)
(-0.01338721436 0.005501763978 0)
(-0.01382936473 0.003888879168 0)
(-0.01419724963 0.002277179814 0)
(-0.01451679375 0.0006503421906 0)
(-0.01479727883 -0.001009874499 0)
(-0.01503001912 -0.002734171095 0)
(-0.01518826926 -0.004579250813 0)
(-0.01522013615 -0.006655609257 0)
(-0.01502670471 -0.009164118005 0)
(-0.01441460219 -0.01243206456 0)
(-0.01297020005 -0.01688208243 0)
(-0.009447317633 -0.022525198 0)
(-0.003485667638 -0.02464848116 0)
(-0.002077381876 0.0209477822 0)
(-0.006519422683 0.02044659236 0)
(-0.009472415617 0.01724037806 0)
(-0.01129804566 0.01430954894 0)
(-0.01255701299 0.01180776173 0)
(-0.0134341797 0.009656720469 0)
(-0.01405922193 0.007743434418 0)
(-0.01453112484 0.00597295478 0)
(-0.01492126076 0.004282981999 0)
(-0.01528086847 0.002631963039 0)
(-0.01564433937 0.0009870826138 0)
(-0.01602949796 -0.0006869477179 0)
(-0.01643703104 -0.00243846521 0)
(-0.01685526733 -0.004341136884 0)
(-0.01725404102 -0.006540714862 0)
(-0.0175552052 -0.009320966876 0)
(-0.01757624944 -0.0131981344 0)
(-0.01686504924 -0.01899798702 0)
(-0.01348620843 -0.02741598764 0)
(-0.005607816401 -0.03241278303 0)
(-0.002856719046 0.02618295539 0)
(-0.008415584109 0.0243627845 0)
(-0.01142515212 0.01968267568 0)
(-0.01304073169 0.0158342557 0)
(-0.01408424266 0.01278603703 0)
(-0.0147436648 0.01031697544 0)
(-0.01517887645 0.008222997174 0)
(-0.0155053807 0.006356842525 0)
(-0.01579988749 0.004633276655 0)
(-0.01612038728 0.002994746323 0)
(-0.01651065448 0.001393330076 0)
(-0.01699997409 -0.0002211132574 0)
(-0.01760326613 -0.001911608135 0)
(-0.01834044641 -0.003751907046 0)
(-0.01923737952 -0.005907384036 0)
(-0.02027873107 -0.008734994125 0)
(-0.02135865525 -0.01294087395 0)
(-0.02222473773 -0.01991046262 0)
(-0.02019434607 -0.03202664339 0)
(-0.009351631917 -0.044427794 0)
(-0.004267066299 0.03186514236 0)
(-0.01159628755 0.02848888936 0)
(-0.01383970104 0.02193747223 0)
(-0.01496052688 0.01711682325 0)
(-0.01557048096 0.01350902995 0)
(-0.01581452532 0.01074100882 0)
(-0.01591352753 0.00851349844 0)
(-0.01598766173 0.00660044977 0)
(-0.01610164617 0.004896765412 0)
(-0.01631612189 0.003333575379 0)
(-0.01668342335 0.001849570254 0)
(-0.01724426515 0.0003831329547 0)
(-0.01801370766 -0.001156814651 0)
(-0.01905600355 -0.002784277427 0)
(-0.02050276234 -0.004659283853 0)
(-0.02243659785 -0.007206963347 0)
(-0.02484578905 -0.01124749374 0)
(-0.02782227596 -0.01887546389 0)
(-0.03087469219 -0.03719833279 0)
(-0.01307989411 -0.06789032965 0)
(-0.007892729532 0.04539984152 0)
(-0.01598342817 0.03335727717 0)
(-0.0158855752 0.02366939985 0)
(-0.01598799033 0.01773468664 0)
(-0.01553316709 0.01354431564 0)
(-0.01489215995 0.01060847771 0)
(-0.01432804306 0.008392817083 0)
(-0.01391075968 0.006523223462 0)
(-0.01363221351 0.004925853261 0)
(-0.01355612782 0.003533925454 0)
(-0.01373939634 0.002273267244 0)
(-0.01424832154 0.00108412021 0)
(-0.01502386608 -0.0002374859685 0)
(-0.01613353525 -0.001469193348 0)
(-0.01788506296 -0.002739158955 0)
(-0.02044938805 -0.004698643337 0)
(-0.02352417049 -0.008599395843 0)
(-0.02705968491 -0.01814700311 0)
(-0.03638921279 -0.04373579484 0)
(-0.004925527912 -0.09917008005 0)
(-0.006043593802 0.04124547143 0)
(-0.01337681098 0.02478764716 0)
(-0.007705757049 0.01729143572 0)
(-0.003924415139 0.01383765849 0)
(-0.0004749716279 0.01083644491 0)
(0.002593314691 0.008456192493 0)
(0.005078332231 0.00666516659 0)
(0.006887464835 0.00526007807 0)
(0.008301681321 0.004108607759 0)
(0.009291729821 0.003130810338 0)
(0.009863264603 0.002291904693 0)
(0.009867263602 0.001581740587 0)
(0.009745756851 0.0008887513787 0)
(0.009097385802 0.0001947925225 0)
(0.008278082913 -0.0005928950124 0)
(0.006408587185 -0.001896738829 0)
(0.00447184055 -0.005492440973 0)
(0.00516500902 -0.01664681939 0)
(-0.01412526857 -0.04693923785 0)
(0.0347292803 -0.1068514828 0)
(0.06428041487 0.09091829883 0)
(0.07150571866 0.05578462606 0)
(0.1031831019 0.02798753494 0)
(0.1220206969 0.01634639314 0)
(0.132293504 0.009006810164 0)
(0.1394719826 0.006541884998 0)
(0.146004204 0.005762278798 0)
(0.1512879853 0.00406669804 0)
(0.1552742518 0.002914976777 0)
(0.1583335928 0.002241245348 0)
(0.1607042229 0.001662968625 0)
(0.162444163 0.001890555099 0)
(0.1641103208 -0.0004178147825 0)
(0.16353326 -0.0005594773805 0)
(0.1636922935 0.0008108618102 0)
(0.1627787502 0.0005886800755 0)
(0.160325233 -0.00168379468 0)
(0.1524123928 -0.002609765802 0)
(0.1238510413 -0.01435629528 0)
(0.1308877862 -0.0835294402 0)
)
;

boundaryField
{
    movingWall
    {
        type            fixedValue;
        value           uniform (1 0 0);
    }
    fixedWalls
    {
        type            fixedValue;
        value           uniform (0 0 0);
    }
    frontAndBack
    {
        type            empty;
    }
}


// ************************************************************************* //
