/*--------------------------------*- C++ -*----------------------------------*\
  =========                 |
  \\      /  F ield         | OpenFOAM: The Open Source CFD Toolbox
   \\    /   O peration     | Website:  https://openfoam.org
    \\  /    A nd           | Version:  dev
     \\/     M anipulation  |
\*---------------------------------------------------------------------------*/
FoamFile
{
    format      ascii;
    class       volScalarField;
    location    "1";
    object      alphat;
}
// * * * * * * * * * * * * * * * * * * * * * * * * * * * * * * * * * * * * * //

dimensions      [1 -1 -1 0 0 0 0];

internalField   nonuniform List<scalar> 
400
(
1.08726269e-09
1.333435091e-08
3.500072926e-08
5.012579169e-08
5.948546309e-08
6.650549645e-08
7.311905896e-08
8.035972086e-08
8.872351349e-08
9.825269281e-08
1.083201938e-07
1.173359751e-07
1.223415963e-07
1.259670889e-07
1.283699369e-07
1.182350025e-07
9.123172104e-08
4.745367258e-08
1.175538571e-08
1.019629567e-09
1.427634332e-08
1.242576154e-06
3.935169859e-06
5.305921535e-06
5.970339127e-06
6.459310812e-06
6.96440415e-06
7.572650786e-06
8.360090588e-06
9.386104565e-06
1.067006087e-05
1.216110163e-05
1.342093654e-05
1.424904385e-05
1.362064566e-05
1.184200175e-05
8.562071585e-06
3.69778832e-06
5.208161428e-07
8.437421421e-09
5.056165101e-08
5.856980533e-06
2.625979148e-05
3.923189877e-05
4.571208828e-05
4.990814065e-05
5.345996225e-05
5.70791928e-05
6.098547591e-05
6.522022057e-05
6.93277358e-05
7.315820581e-05
7.443329077e-05
7.111822648e-05
6.205834936e-05
4.565810683e-05
2.467347415e-05
7.171108124e-06
7.667172172e-07
1.258436011e-08
9.71114075e-08
1.089917371e-05
5.410632109e-05
9.013001424e-05
0.0001108120723
0.0001236653735
0.0001330383472
0.0001408965034
0.0001475319603
0.0001527208227
0.0001557573957
0.0001533528222
0.0001435611625
0.0001225733935
9.091980679e-05
5.441320235e-05
2.302062565e-05
4.934594681e-06
5.433237318e-07
1.177952258e-08
1.452037494e-07
1.540202578e-05
7.789708519e-05
0.0001393471915
0.0001799635327
0.0002059093201
0.0002232719012
0.0002352739292
0.0002421606218
0.0002438041816
0.000238114547
0.0002206696738
0.000188833328
0.0001426607647
8.976498445e-05
4.312832424e-05
1.198271285e-05
2.509138291e-06
4.177438233e-07
1.965244975e-08
1.90550262e-07
1.926327462e-05
9.724490399e-05
0.0001816698236
0.0002435393515
0.000284737749
0.0003110899382
0.0003257688791
0.0003302621615
0.0003240716647
0.0003031591785
0.0002639191464
0.0002058373022
0.0001367544004
7.181749508e-05
2.411003397e-05
6.076300142e-06
2.314056505e-06
9.129723349e-07
1.22290467e-07
2.308933381e-07
2.24788826e-05
0.0001127250077
0.0002164095274
0.000298011438
0.0003542524973
0.0003888338315
0.0004049746704
0.0004051681991
0.000387296859
0.0003476020959
0.0002843027841
0.0002027613308
0.0001171429526
4.781647154e-05
1.298825545e-05
6.560116657e-06
5.557135584e-06
2.870746766e-06
7.377856747e-07
2.652705462e-07
2.508349401e-05
0.0001248270349
0.0002438927623
0.000342188398
0.0004115626942
0.0004529894249
0.0004698686409
0.0004640260769
0.0004329848726
0.0003741709465
0.000289106786
0.0001879405385
9.458045251e-05
3.071995085e-05
1.386202526e-05
1.428993894e-05
1.339285769e-05
7.584052066e-06
2.898888878e-06
2.937017634e-07
2.713662856e-05
0.0001339711807
0.0002646968903
0.0003760429522
0.0004558534559
0.0005025291062
0.0005194405265
0.0005072149123
0.0004637994959
0.0003882370153
0.0002854756592
0.0001729019241
7.713330871e-05
2.968932324e-05
2.056918011e-05
2.953580146e-05
2.636269993e-05
1.566841427e-05
7.269568713e-06
3.167220343e-07
2.871145662e-05
0.0001405406132
0.0002794829496
0.000400104824
0.0004873460427
0.000537646729
0.0005542323516
0.0005367269355
0.0004839643093
0.0003969319917
0.0002832024836
0.0001663196295
7.25824037e-05
3.357044637e-05
3.057534093e-05
4.753894107e-05
4.570351371e-05
2.700182616e-05
1.255437041e-05
3.352133996e-07
2.989450622e-05
0.0001449135624
0.0002889074134
0.0004150421401
0.0005065649292
0.0005588924706
0.0005751871413
0.0005546287836
0.0004970426462
0.0004050281416
0.000288623785
0.00017109835
7.795460729e-05
3.908443287e-05
3.774365503e-05
5.875574488e-05
6.335727247e-05
3.948641936e-05
1.733645747e-05
3.499966516e-07
3.07523558e-05
0.0001474506125
0.0002934393277
0.0004211884421
0.0005135667437
0.0005661479756
0.0005823357855
0.0005615429173
0.0005043870659
0.000413761755
0.0002996561785
0.0001837686739
9.077628125e-05
4.62838022e-05
4.206199048e-05
6.528581164e-05
7.723529873e-05
5.342261266e-05
2.230989921e-05
3.632895305e-07
3.139663644e-05
0.0001485138515
0.0002936834928
0.0004193986589
0.0005093324625
0.0005602860832
0.0005762995526
0.000557389301
0.0005046740487
0.0004215530042
0.0003165463097
0.0002062740023
0.0001142099979
5.83478744e-05
4.692374454e-05
6.724377162e-05
8.416314541e-05
6.641211173e-05
2.797447791e-05
3.745487305e-07
3.184811528e-05
0.0001482971721
0.0002896918506
0.0004084985439
0.0004908646523
0.0005366149149
0.000551331339
0.0005360098772
0.0004920523311
0.000421500283
0.0003316634374
0.0002329003059
0.0001438348287
7.989642436e-05
5.84801144e-05
6.643090451e-05
8.461165991e-05
7.660492804e-05
3.46641436e-05
3.913685266e-07
3.233775344e-05
0.0001467172268
0.0002785981797
0.00038194868
0.0004489533076
0.0004844138245
0.0004957863138
0.0004851409699
0.0004538935532
0.0004023283109
0.0003323017958
0.0002528883382
0.0001743216159
0.0001098525155
7.820842978e-05
6.954569849e-05
7.736155319e-05
8.470689234e-05
4.317767901e-05
4.114258915e-07
3.28002879e-05
0.0001416313073
0.0002525751925
0.0003276526167
0.0003701513858
0.0003903632605
0.0003957655185
0.0003894071394
0.0003720994429
0.0003432703079
0.0003015932788
0.0002471926344
0.0001867729381
0.0001331926299
9.954421764e-05
8.468851775e-05
7.601226733e-05
8.588322712e-05
5.409645092e-05
4.55860076e-07
3.327498364e-05
0.0001254649185
0.0001932691658
0.0002267267978
0.0002413764664
0.0002464960032
0.00024627856
0.00024331644
0.0002367636158
0.00022657952
0.0002117120688
0.0001901831352
0.0001611808514
0.0001280552567
9.918765195e-05
7.97566629e-05
7.549111785e-05
8.872679664e-05
6.840568532e-05
6.295117554e-07
3.398333449e-05
8.164949915e-05
9.800907401e-05
0.0001037716368
0.0001056158895
0.0001062867541
0.000105589645
0.0001056471564
0.0001046722408
0.0001033192088
0.0001010076415
9.702916839e-05
9.076532683e-05
8.149451587e-05
7.034874178e-05
6.417627147e-05
7.053669393e-05
9.158341723e-05
8.647448511e-05
4.424926603e-06
3.484978816e-05
4.627783089e-05
5.110523414e-05
5.408793322e-05
5.641724945e-05
5.820748495e-05
6.004621422e-05
6.355232391e-05
6.545164894e-05
6.556575077e-05
6.62880229e-05
6.688777819e-05
6.707930682e-05
6.868676672e-05
6.83476811e-05
7.054178514e-05
8.48524792e-05
0.000100658026
0.0001078873891
4.400218348e-05
4.389638329e-05
4.474487759e-05
4.50322021e-05
4.407983126e-05
4.110915751e-05
4.351060163e-05
4.192501358e-05
5.143946545e-05
5.311206724e-05
4.927949744e-05
4.685559873e-05
4.524424129e-05
4.22906378e-05
5.314103179e-05
5.487701045e-05
5.530947457e-05
5.585745333e-05
5.113770148e-05
3.769169638e-05
)
;

boundaryField
{
    movingWall
    {
        type            compressible::alphatWallFunction;
        Prt             0.85;
        value           nonuniform List<scalar> 
20
(
1.832609127e-06
8.033226929e-07
8.507942169e-07
8.291635165e-07
5.496566731e-07
0
2.334393787e-07
0
1.543340292e-06
1.738127125e-06
9.498426639e-07
4.087117563e-07
3.520169417e-08
0
1.295413941e-06
1.485173068e-06
1.555693038e-06
1.671214367e-06
1.052933511e-06
0
)
;
    }
    fixedWalls
    {
        type            compressible::alphatWallFunction;
        Prt             0.85;
        value           nonuniform List<scalar> 
60
(
0
0
0
0
0
0
0
0
0
0
0
0
0
0
0
0
0
0
0
1.832609127e-06
0
0
0
0
0
0
0
0
0
0
0
0
0
0
0
0
0
0
0
0
0
0
0
0
0
0
0
0
0
0
0
0
0
0
0
0
0
0
0
0
)
;
    }
    frontAndBack
    {
        type            empty;
    }
}


// ************************************************************************* //
