/*--------------------------------*- C++ -*----------------------------------*\
  =========                 |
  \\      /  F ield         | OpenFOAM: The Open Source CFD Toolbox
   \\    /   O peration     | Website:  https://openfoam.org
    \\  /    A nd           | Version:  dev
     \\/     M anipulation  |
\*---------------------------------------------------------------------------*/
FoamFile
{
    format      ascii;
    class       volScalarField;
    location    "1";
    object      k;
}
// * * * * * * * * * * * * * * * * * * * * * * * * * * * * * * * * * * * * * //

dimensions      [0 2 -2 0 0 0 0];

internalField   nonuniform List<scalar> 
400
(
1.571015107e-07
1.927251896e-06
5.065237512e-06
7.248103928e-06
8.593026729e-06
9.602060114e-06
1.055679354e-05
1.160733817e-05
1.282778671e-05
1.422885206e-05
1.571920644e-05
1.706039459e-05
1.78008077e-05
1.833266643e-05
1.872496172e-05
1.728003639e-05
1.330779558e-05
6.823807333e-06
1.685125134e-06
1.457675157e-07
2.066447425e-06
4.494713236e-05
0.0001177980765
0.0001632242655
0.0001894337835
0.0002085679769
0.0002264667749
0.0002460123643
0.0002686771565
0.0002950850342
0.0003235253087
0.0003493425681
0.0003607872988
0.0003613555089
0.000335442725
0.000287350373
0.0002106093291
0.0001020742505
2.283896205e-05
1.190581945e-06
7.368266683e-06
0.0001553836286
0.0003910293327
0.0005379052005
0.0006289428482
0.0006919732974
0.0007410598508
0.000782670476
0.0008182282928
0.0008465837462
0.0008606008753
0.0008624561427
0.0008404385083
0.0007890669446
0.0007020562853
0.0005670494114
0.0003717652063
0.0001515772076
3.180907086e-05
1.745549282e-06
1.422448085e-05
0.0002733832612
0.0006326962138
0.0008470893868
0.0009827487148
0.001075263244
0.001140976337
0.001187871628
0.001216529375
0.001227008098
0.001220282428
0.001187302149
0.001122410798
0.001017308941
0.0008603925067
0.0006371780785
0.000362408149
0.000115477457
2.431323948e-05
1.649060478e-06
2.134247806e-05
0.0003788616647
0.000824245934
0.001077849344
0.00123680754
0.001343946349
0.001417164916
0.001464201456
0.00148498269
0.001485602938
0.001459416789
0.001399115768
0.001295118335
0.001133068403
0.0008942496184
0.0005741591192
0.0002258309513
7.608750713e-05
2.319885841e-05
3.210732063e-06
2.807219174e-05
0.0004688741862
0.0009761467603
0.001253705065
0.001424100827
0.001537139401
0.001612700213
0.001657971416
0.001675032016
0.001668601069
0.001628982929
0.001545902051
0.001401724499
0.001169240538
0.0008248214448
0.0003934377371
0.0001659919238
0.0001044033279
6.878432688e-05
2.112583062e-05
3.406275721e-05
0.0005437146902
0.001095892552
0.001388568256
0.001564171399
0.001678562862
0.001753759212
0.001797426063
0.001812674474
0.001801538448
0.0017521983
0.001647905689
0.001457712663
0.001135939735
0.0006585278115
0.0003046252412
0.0002631727996
0.0003074543671
0.0002481132553
0.0001237595435
3.915904875e-05
0.0006045747007
0.001188921038
0.001490938303
0.001668364011
0.001781980881
0.001855761337
0.001898097098
0.001912299052
0.001898120771
0.001841080727
0.001716067058
0.001475060837
0.001050371681
0.0005443633752
0.0004235620402
0.0006231535616
0.0007403703581
0.0006653798026
0.0004671446937
4.335751214e-05
0.0006529738895
0.001259445157
0.001566629329
0.001743894233
0.001855823394
0.001927914691
0.001969199044
0.001982839868
0.001966779203
0.001903841285
0.001760364504
0.001472647658
0.000965829115
0.0006242607076
0.0006852610663
0.001193608957
0.001344797357
0.001306004852
0.001127560119
4.673510626e-05
0.0006906033776
0.001310875166
0.00162003102
0.001795858587
0.001905756226
0.001976259723
0.002016876338
0.002030468286
0.00201379619
0.001948049001
0.001794276348
0.001482718454
0.0009646805758
0.0007198033681
0.0009337092574
0.001624856384
0.001940718225
0.0019669082
0.001894218695
4.942568022e-05
0.0007192835561
0.001346149899
0.001654724004
0.001828237331
0.001936057367
0.002005282626
0.002045736448
0.002059924096
0.002044168743
0.001979643268
0.001826686655
0.001513170215
0.001009414424
0.0007869528255
0.001005833
0.001702704783
0.002273434975
0.002528912785
0.002587715185
5.155627647e-05
0.0007402562641
0.001368041373
0.001673725455
0.001844309501
0.001950221772
0.002018634065
0.002059516168
0.002075026715
0.002061727534
0.002002365687
0.001860920167
0.001570804417
0.001097408368
0.0008221640248
0.0009663815927
0.001639950763
0.002406152767
0.0030392211
0.00332342065
5.346562187e-05
0.0007555564246
0.001378908203
0.001679382996
0.001846653075
0.001951048564
0.002019258537
0.002061199467
0.002078783735
0.002069250486
0.002017824787
0.001895285794
0.001647590966
0.001235976215
0.0008811667448
0.0009204404066
0.001485726543
0.002451164641
0.003499651589
0.004160767348
5.508287005e-05
0.0007653736634
0.001380141529
0.001674992424
0.00183931998
0.001942680076
0.002011123488
0.002054501942
0.002074492369
0.00206899005
0.002026540671
0.001924928834
0.001725190948
0.001390061101
0.00101359959
0.0009598305748
0.001375706094
0.002460747718
0.003931808981
0.005160480689
5.754197133e-05
0.0007740663346
0.001374809166
0.00166047437
0.001820615397
0.001923097477
0.001992443109
0.002038157797
0.00206186374
0.002062037443
0.002028920065
0.001946580174
0.001788150151
0.001526761193
0.001197879833
0.001069028536
0.001366504551
0.002425761166
0.004353303772
0.00643345723
6.052629921e-05
0.0007786024133
0.001359486489
0.001633365711
0.001790742254
0.001893891566
0.001965370488
0.002014441787
0.002043403042
0.002051173747
0.002030090963
0.001966179299
0.001838582922
0.001631170477
0.001358223939
0.001208972257
0.001436202546
0.002445672721
0.004801186501
0.008071450201
6.713959307e-05
0.0007889005571
0.001342343691
0.001605930259
0.001762983869
0.001869438055
0.001946190621
0.002002997701
0.002042254459
0.002062346099
0.002056576153
0.002019062465
0.001929827549
0.001771024439
0.001541960456
0.001374640169
0.001543410576
0.002596416845
0.005440193188
0.01022096999
9.316627224e-05
0.0008773466454
0.001428487469
0.001692925168
0.001858244721
0.001976721846
0.002070737114
0.002148662197
0.00220955283
0.002263365016
0.002296946931
0.002306138937
0.00228029678
0.002212194318
0.002068398792
0.001942457112
0.002097784837
0.0032765055
0.006703425151
0.01305418148
0.0006713526839
0.00200847247
0.002694133446
0.00307581721
0.003299741608
0.003508081092
0.003683757979
0.003883171144
0.00403681899
0.004201558383
0.004325307872
0.004406366391
0.004443114774
0.004540759809
0.004587676494
0.00466775599
0.005065408187
0.006869610431
0.01068118298
0.01689099712
0.01801738992
0.01871764057
0.01886913545
0.0187875975
0.01807207764
0.0217810791
0.01854608462
0.02133432293
0.02005858437
0.01990032396
0.01899841385
0.01801682958
0.01658568601
0.02002169943
0.01923991244
0.01925005642
0.01938580064
0.01968437137
0.01895842979
0.02278869994
)
;

boundaryField
{
    movingWall
    {
        type            kqRWallFunction;
        value           nonuniform List<scalar> 
20
(
0.01801738992
0.01871764057
0.01886913545
0.0187875975
0.01807207764
0.0217810791
0.01854608462
0.02133432293
0.02005858437
0.01990032396
0.01899841385
0.01801682958
0.01658568601
0.02002169943
0.01923991244
0.01925005642
0.01938580064
0.01968437137
0.01895842979
0.02278869994
)
;
    }
    fixedWalls
    {
        type            kqRWallFunction;
        value           nonuniform List<scalar> 
60
(
1.571015107e-07
2.066447425e-06
7.368266683e-06
1.422448085e-05
2.134247806e-05
2.807219174e-05
3.406275721e-05
3.915904875e-05
4.335751214e-05
4.673510626e-05
4.942568022e-05
5.155627647e-05
5.346562187e-05
5.508287005e-05
5.754197133e-05
6.052629921e-05
6.713959307e-05
9.316627224e-05
0.0006713526839
0.01801738992
1.457675157e-07
1.190581945e-06
1.745549282e-06
1.649060478e-06
3.210732063e-06
2.112583062e-05
0.0001237595435
0.0004671446937
0.001127560119
0.001894218695
0.002587715185
0.00332342065
0.004160767348
0.005160480689
0.00643345723
0.008071450201
0.01022096999
0.01305418148
0.01689099712
0.02278869994
1.571015107e-07
1.927251896e-06
5.065237512e-06
7.248103928e-06
8.593026729e-06
9.602060114e-06
1.055679354e-05
1.160733817e-05
1.282778671e-05
1.422885206e-05
1.571920644e-05
1.706039459e-05
1.78008077e-05
1.833266643e-05
1.872496172e-05
1.728003639e-05
1.330779558e-05
6.823807333e-06
1.685125134e-06
1.457675157e-07
)
;
    }
    frontAndBack
    {
        type            empty;
    }
}


// ************************************************************************* //
