/*--------------------------------*- C++ -*----------------------------------*\
  =========                 |
  \\      /  F ield         | OpenFOAM: The Open Source CFD Toolbox
   \\    /   O peration     | Website:  https://openfoam.org
    \\  /    A nd           | Version:  dev
     \\/     M anipulation  |
\*---------------------------------------------------------------------------*/
FoamFile
{
    format      ascii;
    class       volScalarField;
    location    "1";
    object      nut;
}
// * * * * * * * * * * * * * * * * * * * * * * * * * * * * * * * * * * * * * //

dimensions      [0 2 -1 0 0 0 0];

internalField   nonuniform List<scalar> 
400
(
7.728488888e-10
9.480968576e-09
2.491804927e-08
3.565649397e-08
4.227273904e-08
4.723660178e-08
5.193334003e-08
5.710141422e-08
6.310531774e-08
6.999775193e-08
7.732943673e-08
8.39273097e-08
8.756971572e-08
9.018615449e-08
9.211602156e-08
8.500782188e-08
6.546668623e-08
3.356920024e-08
8.289844713e-09
7.170921885e-10
1.016573036e-08
8.842698289e-07
2.802851888e-06
3.773550173e-06
4.239617398e-06
4.582034009e-06
4.938232436e-06
5.368866772e-06
5.929878862e-06
6.666557444e-06
7.598698933e-06
8.688010239e-06
9.616425966e-06
1.025015954e-05
9.793210289e-06
8.500934153e-06
6.101428168e-06
2.568797419e-06
3.581594538e-07
5.856977176e-09
3.624762546e-08
4.207789768e-06
1.891725144e-05
2.821422228e-05
3.281712932e-05
3.579377348e-05
3.832038226e-05
4.091628374e-05
4.373995028e-05
4.682467921e-05
4.98194389e-05
5.263613393e-05
5.354820277e-05
5.106309212e-05
4.427913327e-05
3.213956581e-05
1.700507525e-05
4.803631566e-06
5.15659091e-07
8.587096719e-09
6.997624765e-08
7.87646814e-06
3.922595659e-05
6.523216682e-05
8.004300712e-05
8.920953767e-05
9.589251272e-05
0.0001015166716
0.0001062725238
0.0001100145262
0.0001121533289
0.0001102628748
0.0001028525118
8.716107104e-05
6.37981251e-05
3.741493376e-05
1.530023027e-05
3.179227322e-06
3.613616403e-07
8.112427403e-09
1.049926915e-07
1.116912374e-05
5.665069857e-05
0.0001011863546
0.000130410959
0.0001489813384
0.0001613642075
0.0001698895899
0.0001747068831
0.0001757438845
0.0001713041356
0.0001581335427
0.0001343204236
0.0001001637189
6.176514969e-05
2.867791093e-05
7.521122464e-06
1.675186287e-06
3.020739043e-07
1.579495181e-08
1.380990042e-07
1.399935653e-05
7.084418159e-05
0.0001321715742
0.000176832942
0.0002063926236
0.0002251700516
0.0002354692884
0.0002384307321
0.0002334967257
0.0002176763436
0.0001883096002
0.0001452261562
9.480099297e-05
4.835501699e-05
1.527881813e-05
4.092768747e-06
1.763859817e-06
7.348122542e-07
1.039269148e-07
1.675691335e-07
1.63571652e-05
8.219957389e-05
0.0001576257335
0.0002166611713
0.0002570827643
0.000281695784
0.0002929487788
0.0002925491589
0.0002788629115
0.0002491012407
0.0002020505724
0.0001421384928
8.030451632e-05
3.111969051e-05
8.826749005e-06
5.076174681e-06
4.460078066e-06
2.279196025e-06
6.088256513e-07
1.926399505e-07
1.826397301e-05
9.106319368e-05
0.0001777558383
0.0002489791004
0.0002989172653
0.0003284077377
0.0003400903174
0.000335106763
0.0003116407212
0.0002678322429
0.0002050061858
0.0001312243242
6.412409882e-05
2.081679002e-05
1.021700614e-05
1.14128447e-05
1.04684202e-05
5.886532151e-06
2.298082745e-06
2.132939704e-07
1.976174866e-05
9.773936413e-05
0.0001929728837
0.0002737488561
0.0003312910313
0.0003645601687
0.0003762029215
0.0003664601517
0.0003338973948
0.0002779121647
0.0002024089795
0.0001210509899
5.267472313e-05
2.110721017e-05
1.592041064e-05
2.296219394e-05
2.028835424e-05
1.195404321e-05
5.546946029e-06
2.299097864e-07
2.090352182e-05
0.0001025114131
0.0002037631205
0.0002913579205
0.0003543667051
0.0003903053228
0.0004017148634
0.000388122086
0.000348804458
0.0002846613831
0.0002015972545
0.0001174804299
5.080057821e-05
2.434223774e-05
2.333705559e-05
3.616175587e-05
3.464916044e-05
2.030241776e-05
9.318464227e-06
2.431458592e-07
2.175534369e-05
0.0001056637031
0.0002106187763
0.0003023071782
0.0003685367298
0.0004060526698
0.0004173245978
0.0004015992939
0.0003589128161
0.0002913207719
0.0002065947967
0.0001218305665
5.517545853e-05
2.829959566e-05
2.84160974e-05
4.412309537e-05
4.742131991e-05
2.93893236e-05
1.273006709e-05
2.536271643e-07
2.236576567e-05
0.000107466973
0.0002138990131
0.0003068609424
0.0003738581322
0.0004117187169
0.000423042419
0.0004072953538
0.0003650997393
0.000298717354
0.0002156629025
0.0001321805298
6.538668196e-05
3.370730762e-05
3.138717149e-05
4.860120566e-05
5.727760564e-05
3.968016144e-05
1.634931384e-05
2.630200427e-07
2.28214715e-05
0.0001082092194
0.0002140718153
0.0003056462645
0.0003710084247
0.0004078515436
0.0004191968212
0.0004049759903
0.0003661689436
0.0003055257337
0.0002291661427
0.0001494906366
8.31555608e-05
4.284306027e-05
3.495765054e-05
4.964503144e-05
6.202355507e-05
4.895008145e-05
2.046857709e-05
2.709759711e-07
2.313888896e-05
0.0001080286614
0.0002111947397
0.0002978759052
0.0003579271957
0.0003912064995
0.000401784516
0.000390350354
0.0003580253297
0.0003064268257
0.0002412353512
0.0001696684769
0.0001053362666
5.906419359e-05
4.376057343e-05
4.839034345e-05
6.164264965e-05
5.63082078e-05
2.538659088e-05
2.830733314e-07
2.348989587e-05
0.0001068878418
0.0002032049887
0.0002787796387
0.0003278271638
0.0003538026795
0.0003621056519
0.0003542379868
0.0003312680702
0.0002934837971
0.0002423824208
0.0001848578853
0.0001280100356
8.133297339e-05
5.857807584e-05
5.108757301e-05
5.669826049e-05
6.214354226e-05
3.164890242e-05
2.977545036e-07
2.383289495e-05
0.0001032336639
0.0001843801271
0.0002394359922
0.0002706989483
0.0002856314717
0.0002896617456
0.0002850259704
0.0002723079952
0.0002511347979
0.0002205929304
0.0001809430612
0.0001371294208
9.835493067e-05
7.396726745e-05
6.260564966e-05
5.590233322e-05
6.295500002e-05
3.970688497e-05
3.302880965e-07
2.419963984e-05
9.152651072e-05
0.0001411773844
0.000165806314
0.000176730498
0.0001805459058
0.0001805027188
0.0001784006162
0.0001735767961
0.0001660190419
0.0001550741771
0.0001392649986
0.0001181275495
9.410079098e-05
7.308306681e-05
5.860526291e-05
5.536138757e-05
6.517571947e-05
5.028128632e-05
4.583243534e-07
2.475604135e-05
5.936121228e-05
7.130381501e-05
7.56870413e-05
7.747014681e-05
7.770044289e-05
7.745751516e-05
7.750959474e-05
7.680206349e-05
7.559441289e-05
7.384003481e-05
7.093378767e-05
6.642565581e-05
5.962681154e-05
5.156030902e-05
4.703389199e-05
5.173281198e-05
6.718670842e-05
6.421906115e-05
3.302668176e-06
2.537775839e-05
3.374148291e-05
3.726958768e-05
3.943535611e-05
4.279101168e-05
4.281786542e-05
4.540933457e-05
4.571413619e-05
4.683914265e-05
4.759451133e-05
4.835205954e-05
4.872228887e-05
5.040143873e-05
4.944752343e-05
4.906525333e-05
5.058665302e-05
5.992321576e-05
7.264575078e-05
8.30939992e-05
2.649239455e-05
3.073629489e-05
3.140305077e-05
3.156646613e-05
3.067740063e-05
3.737445483e-05
3.219590349e-05
3.747878893e-05
3.559720722e-05
3.571133739e-05
3.445128212e-05
3.303677218e-05
3.064906365e-05
3.738712303e-05
3.621928888e-05
3.666739277e-05
3.69225769e-05
3.739538177e-05
3.526647075e-05
3.631296518e-05
)
;

boundaryField
{
    movingWall
    {
        type            nutkWallFunction;
        Cmu             0.09;
        kappa           0.41;
        E               9.8;
        value           nonuniform List<scalar> 
20
(
4.728514616e-08
2.887049704e-07
3.402453235e-07
3.125349497e-07
6.633268794e-08
1.287872967e-06
2.300481777e-07
1.147447519e-06
7.368619774e-07
6.84888117e-07
3.840392356e-07
4.709051684e-08
0
7.247699897e-07
4.653894955e-07
4.687936906e-07
5.142478512e-07
6.135827371e-07
3.705155851e-07
1.598616201e-06
)
;
    }
    fixedWalls
    {
        type            nutkWallFunction;
        Cmu             0.09;
        kappa           0.41;
        E               9.8;
        value           nonuniform List<scalar> 
60
(
0
0
0
0
0
0
0
0
0
0
0
0
0
0
0
0
0
0
0
4.728514616e-08
0
0
0
0
0
0
0
0
0
0
0
0
0
0
0
0
0
0
0
1.598616201e-06
0
0
0
0
0
0
0
0
0
0
0
0
0
0
0
0
0
0
0
0
)
;
    }
    frontAndBack
    {
        type            empty;
    }
}


// ************************************************************************* //
