/*--------------------------------*- C++ -*----------------------------------*\
  =========                 |
  \\      /  F ield         | OpenFOAM: The Open Source CFD Toolbox
   \\    /   O peration     | Website:  https://openfoam.org
    \\  /    A nd           | Version:  dev
     \\/     M anipulation  |
\*---------------------------------------------------------------------------*/
FoamFile
{
    format      ascii;
    class       volScalarField;
    location    "1";
    object      omega;
}
// * * * * * * * * * * * * * * * * * * * * * * * * * * * * * * * * * * * * * //

dimensions      [0 0 -1 0 0 0 0];

internalField   nonuniform List<scalar> 
400
(
203.2758447
203.2758447
203.2758446
203.2758446
203.2758445
203.2758444
203.2758442
203.275844
203.2758438
203.2758434
203.275843
203.2758425
203.275842
203.2758413
203.2758406
203.2758399
203.2758392
203.2758387
203.2758383
203.2758382
203.2758447
50.8296573
42.02793482
43.25482849
44.68181105
45.51864445
45.85988566
45.82202813
45.30904639
44.26348032
42.57640835
40.20973255
37.51781588
35.25364726
34.25258063
33.80221136
34.51803797
39.73620096
63.7675812
203.2758382
203.2758447
36.92761216
20.67051516
19.06503731
19.16507816
19.33222541
19.33852971
19.12858169
18.70665805
18.07986217
17.2743992
16.38524866
15.69499002
15.45278423
15.85524001
17.64334387
21.86201477
31.55471138
61.6862408
203.2758381
203.2758447
34.70886396
16.12952924
12.9857619
12.27775855
12.05323189
11.89849244
11.70124679
11.44726155
11.15314623
10.88048336
10.76792303
10.91281855
11.67159752
13.48617229
17.03004695
23.68645064
36.32249137
67.28229223
203.275838
203.2758448
33.92044654
14.54961642
10.65212151
9.483923355
9.02090398
8.78239938
8.618547243
8.499852228
8.453226934
8.519448663
8.847684965
9.642006038
11.31216388
14.47822312
20.02095343
30.02622978
45.42032591
76.79861807
203.2758378
203.2758448
33.49255269
13.77878519
9.485436432
8.0533684
7.447646985
7.162143464
7.041136563
7.025235385
7.146143331
7.483509239
8.209363988
9.652011288
12.33363176
17.05761876
25.75053475
40.55736693
59.19026382
93.60802911
203.2758373
203.275845
33.24015401
13.33209529
8.809273874
7.219435719
6.529270317
6.225720482
6.135632552
6.19613634
6.460301366
7.034080982
8.155907059
10.25557985
14.14540286
21.16112984
34.51160115
51.84470909
68.93475013
108.8599895
203.2758364
203.2758452
33.10203648
13.05599979
8.387563062
6.700819498
5.961451841
5.650784449
5.581155949
5.70653673
6.09073411
6.874007052
8.370806234
11.24075774
16.38029539
26.15020734
41.45657098
54.60107256
70.72417267
113.0342595
203.2758371
203.2758454
33.04231325
12.88575149
8.118391037
6.37041651
5.601791835
5.288330586
5.234406569
5.410792576
5.890370016
6.850514394
8.69706724
12.16551521
18.33572267
29.57570908
43.04292659
51.98148573
66.28420134
109.2521441
203.275841
203.2758456
33.03765669
12.78760214
7.950560513
6.163754135
5.377921229
5.063368618
5.020666452
5.231519563
5.773424461
6.843390486
8.900301505
12.62098253
18.98955897
29.5701396
40.00972847
44.93300573
56.01054111
96.88049092
203.2758456
203.275846
33.06238532
12.73994626
7.856488547
6.047614687
5.253363396
4.938479107
4.902027005
5.129302086
5.695446503
6.79540719
8.841881227
12.42028383
18.29462683
27.80791765
35.39659177
38.58987609
47.94119986
86.04868962
203.2758482
203.2758463
33.09773854
12.72987723
7.824839539
6.010245182
5.21647546
4.902944612
4.868344345
5.094648627
5.64702549
6.703211782
8.628837621
11.88378061
16.78336223
24.39126952
30.78906275
33.74300576
42.00861297
76.59296207
203.275849
203.2758466
33.10726149
12.74298263
7.844951441
6.041798279
5.258771591
4.950964558
4.917020747
5.133103652
5.651081344
6.604434797
8.27035692
11.02136564
14.86342228
20.56731567
26.33015641
29.9269937
39.51989914
71.49429553
203.2758472
203.275847
33.07737311
12.77569778
7.931032879
6.174786035
5.427584434
5.1408233
5.113442306
5.314437011
5.77889294
6.613457115
7.979464137
10.16801105
13.19641512
17.16098246
21.93368367
26.48110825
38.73326462
69.82656941
203.2758441
203.2758475
32.9531616
12.86216601
8.171425223
6.530661297
5.866193194
5.631509382
5.628627407
5.820560802
6.224679131
6.913226846
8.031028684
9.673107253
11.92688672
14.72809591
18.24963557
23.7855507
38.71679409
70.05239182
203.2758402
203.275848
32.66923364
13.16902296
8.858686326
7.479001959
6.9963019
6.880791098
6.954462637
7.169181948
7.53255058
8.083670522
8.913156442
10.16111317
11.8951168
13.80941382
16.34469271
22.93416638
41.05024463
76.26378365
203.2758351
203.2758485
32.59968175
14.66617356
11.37526571
10.63279091
10.57790295
10.77947801
11.09677303
11.44757514
11.88146195
12.38759199
13.01997859
13.8572331
14.9924759
16.38626456
18.80928414
26.33569922
46.8994178
83.46962998
203.2758257
203.2758494
35.43969866
24.0643244
23.74242062
24.55168929
25.51591713
26.6502614
27.73988028
28.50682987
29.47010683
30.38514148
31.23155269
32.14683517
33.30331167
34.68907255
37.67349632
44.60155747
63.3351518
99.77308472
203.275807
203.275851
79.14302118
79.84632607
82.52887682
83.6747004
81.98172827
86.03319999
85.51482158
88.30570424
89.70186355
90.87829146
91.13089355
91.19265282
90.09186888
92.77869095
95.13363679
100.1332937
114.6402166
147.031077
203.2757754
263.9717572
249.4413046
250.1086649
249.8045439
245.8799137
203.2758383
241.4514474
203.2758363
259.8754213
262.6327102
251.5019722
243.9045108
238.6815964
203.2758336
256.3723957
259.0529009
260.0501364
261.6850045
252.9533602
203.2757384
)
;

boundaryField
{
    movingWall
    {
        beta1           0.075;
        blended         0;
        type            omegaWallFunction;
        value           nonuniform List<scalar> 
20
(
263.9717572
249.4413046
250.1086649
249.8045439
245.8799137
203.2758383
241.4514474
203.2758363
259.8754213
262.6327102
251.5019722
243.9045108
238.6815964
203.2758336
256.3723957
259.0529009
260.0501364
261.6850045
252.9533602
203.2757384
)
;
    }
    fixedWalls
    {
        beta1           0.075;
        blended         0;
        type            omegaWallFunction;
        value           nonuniform List<scalar> 
60
(
203.2758447
203.2758447
203.2758447
203.2758447
203.2758448
203.2758448
203.275845
203.2758452
203.2758454
203.2758456
203.275846
203.2758463
203.2758466
203.275847
203.2758475
203.275848
203.2758485
203.2758494
203.275851
263.9717572
203.2758382
203.2758382
203.2758381
203.275838
203.2758378
203.2758373
203.2758364
203.2758371
203.275841
203.2758456
203.2758482
203.275849
203.2758472
203.2758441
203.2758402
203.2758351
203.2758257
203.275807
203.2757754
203.2757384
203.2758447
203.2758447
203.2758446
203.2758446
203.2758445
203.2758444
203.2758442
203.275844
203.2758438
203.2758434
203.275843
203.2758425
203.275842
203.2758413
203.2758406
203.2758399
203.2758392
203.2758387
203.2758383
203.2758382
)
;
    }
    frontAndBack
    {
        type            empty;
    }
}


// ************************************************************************* //
