/*--------------------------------*- C++ -*----------------------------------*\
  =========                 |
  \\      /  F ield         | OpenFOAM: The Open Source CFD Toolbox
   \\    /   O peration     | Website:  https://openfoam.org
    \\  /    A nd           | Version:  dev
     \\/     M anipulation  |
\*---------------------------------------------------------------------------*/
FoamFile
{
    format      ascii;
    class       volScalarField;
    location    "1";
    object      p;
}
// * * * * * * * * * * * * * * * * * * * * * * * * * * * * * * * * * * * * * //

dimensions      [1 -1 -2 0 0 0 0];

internalField   nonuniform List<scalar> 
400
(
100000.0014
100000.0014
100000.0014
100000.0015
100000.0015
100000.0016
100000.0017
100000.0018
100000.002
100000.0023
100000.0025
100000.0029
100000.0033
100000.0037
100000.0042
100000.0047
100000.0052
100000.0055
100000.0057
100000.0058
100000.0014
100000.0014
100000.0014
100000.0014
100000.0015
100000.0016
100000.0017
100000.0018
100000.002
100000.0022
100000.0025
100000.0028
100000.0032
100000.0037
100000.0041
100000.0047
100000.0051
100000.0055
100000.0058
100000.0058
100000.0014
100000.0014
100000.0014
100000.0014
100000.0015
100000.0015
100000.0016
100000.0018
100000.0019
100000.0022
100000.0024
100000.0027
100000.0031
100000.0035
100000.004
100000.0046
100000.0052
100000.0056
100000.0059
100000.0059
100000.0014
100000.0014
100000.0014
100000.0014
100000.0014
100000.0015
100000.0016
100000.0017
100000.0018
100000.002
100000.0023
100000.0026
100000.0029
100000.0033
100000.0039
100000.0045
100000.0052
100000.0057
100000.006
100000.006
100000.0013
100000.0013
100000.0013
100000.0013
100000.0013
100000.0014
100000.0015
100000.0016
100000.0017
100000.0018
100000.002
100000.0023
100000.0026
100000.0031
100000.0036
100000.0043
100000.0051
100000.0057
100000.006
100000.0061
100000.0013
100000.0012
100000.0012
100000.0012
100000.0012
100000.0012
100000.0013
100000.0013
100000.0014
100000.0016
100000.0017
100000.0019
100000.0022
100000.0026
100000.0031
100000.0038
100000.0047
100000.0054
100000.0059
100000.0062
100000.0012
100000.0011
100000.0011
100000.001
100000.001
100000.001
100000.001
100000.0011
100000.0011
100000.0012
100000.0013
100000.0014
100000.0016
100000.0019
100000.0023
100000.0028
100000.0035
100000.0043
100000.0053
100000.0062
100000.0011
100000.001
100000.0009
100000.0008
100000.0008
100000.0008
100000.0007
100000.0007
100000.0007
100000.0007
100000.0007
100000.0008
100000.0008
100000.0008
100000.0007
100000.0007
100000.0011
100000.0021
100000.0038
100000.0052
100000.0009
100000.0009
100000.0008
100000.0006
100000.0006
100000.0005
100000.0004
100000.0004
100000.0003
100000.0002
100000.0001
100000
99999.99982
99999.99941
99999.99863
99999.99775
99999.99758
99999.99864
100000.0008
100000.0026
100000.0007
100000.0007
100000.0006
100000.0004
100000.0003
100000.0002
100000.0001
100000
99999.9999
99999.99973
99999.99949
99999.99919
99999.99874
99999.99791
99999.99647
99999.9948
99999.99414
99999.99503
99999.99699
99999.99919
100000.0005
100000.0005
100000.0004
100000.0002
100000.0001
99999.99998
99999.99986
99999.99971
99999.99951
99999.99925
99999.9989
99999.99844
99999.99775
99999.99664
99999.99484
99999.99277
99999.99182
99999.99247
99999.9939
99999.99629
100000.0003
100000.0003
100000.0002
100000
99999.99988
99999.99975
99999.9996
99999.99942
99999.99917
99999.99885
99999.99842
99999.99784
99999.99704
99999.99584
99999.99406
99999.99196
99999.9909
99999.99145
99999.9924
99999.99476
100000.0001
100000.0001
99999.99994
99999.99981
99999.99968
99999.99955
99999.99939
99999.99918
99999.99891
99999.99855
99999.99808
99999.99747
99999.99666
99999.99554
99999.994
99999.99226
99999.99129
99999.9919
99999.9922
99999.99471
99999.99987
99999.99983
99999.99974
99999.99962
99999.99951
99999.99939
99999.99923
99999.99901
99999.99873
99999.99836
99999.99789
99999.99731
99999.99657
99999.99562
99999.99446
99999.99325
99999.99249
99999.99309
99999.99296
99999.99559
99999.99962
99999.99959
99999.99953
99999.99945
99999.99938
99999.99928
99999.99913
99999.99892
99999.99863
99999.99827
99999.99783
99999.9973
99999.99666
99999.99592
99999.99511
99999.99438
99999.99392
99999.99447
99999.99414
99999.99698
99999.99934
99999.99935
99999.99934
99999.99931
99999.99929
99999.99923
99999.9991
99999.9989
99999.99864
99999.9983
99999.99789
99999.9974
99999.99685
99999.99626
99999.99569
99999.9953
99999.99515
99999.99581
99999.99539
99999.99908
99999.99897
99999.99909
99999.99918
99999.99924
99999.99929
99999.99926
99999.99915
99999.99898
99999.99874
99999.99845
99999.99807
99999.99761
99999.9971
99999.99657
99999.99613
99999.99595
99999.99608
99999.997
99999.99707
100000.0036
99999.99848
99999.99882
99999.99905
99999.99926
99999.99936
99999.99935
99999.99925
99999.99907
99999.99886
99999.99863
99999.99829
99999.99786
99999.99735
99999.99683
99999.99644
99999.99643
99999.99689
99999.99856
100000.0011
100000.0139
99999.99717
99999.99839
99999.99881
99999.99919
99999.99942
99999.99944
99999.99931
99999.99909
99999.9989
99999.99879
99999.99848
99999.99806
99999.99758
99999.99703
99999.99666
99999.99687
99999.99804
100000.0019
100000.0102
100000.0316
99999.99887
100000.0017
100000.0011
100000.0005
100000.0003
100000.0001
99999.99999
99999.99982
99999.99961
99999.99927
99999.99884
99999.99836
99999.99789
99999.99758
99999.99762
99999.99818
100000.0008
100000.0082
100000.0242
100000.0506
)
;

boundaryField
{
    movingWall
    {
        type            zeroGradient;
    }
    fixedWalls
    {
        type            zeroGradient;
    }
    frontAndBack
    {
        type            empty;
    }
}


// ************************************************************************* //
