/*--------------------------------*- C++ -*----------------------------------*\
  =========                 |
  \\      /  F ield         | OpenFOAM: The Open Source CFD Toolbox
   \\    /   O peration     | Website:  https://openfoam.org
    \\  /    A nd           | Version:  dev
     \\/     M anipulation  |
\*---------------------------------------------------------------------------*/
FoamFile
{
    format      ascii;
    class       surfaceScalarField;
    location    "1";
    object      phi;
}
// * * * * * * * * * * * * * * * * * * * * * * * * * * * * * * * * * * * * * //

dimensions      [1 0 -1 0 0 0 0];

internalField   nonuniform List<scalar> 
760
(
-1.047042336e-08
1.047042616e-08
-4.156554424e-08
3.109515421e-08
-1.081715525e-07
6.660602719e-08
-2.071091081e-07
9.893756599e-08
-3.288707649e-07
1.217616654e-07
-4.657032228e-07
1.368324701e-07
-6.120914515e-07
1.463882406e-07
-7.63214587e-07
1.511231565e-07
-9.137317734e-07
1.505172179e-07
-1.056700831e-06
1.429690981e-07
-1.182400834e-06
1.257000195e-07
-1.277138856e-06
9.473804313e-08
-1.327482886e-06
5.034403449e-08
-1.319249014e-06
-8.233871935e-09
-1.23402198e-06
-8.522706852e-08
-1.064983838e-06
-1.690382115e-07
-8.188214458e-07
-2.461624724e-07
-5.212446149e-07
-2.975768788e-07
-2.185253478e-07
-3.027192979e-07
-2.185253753e-07
-2.39852456e-08
3.445568248e-08
-8.325071403e-08
9.03606635e-08
-1.926269392e-07
1.759822841e-07
-3.455656565e-07
2.518763259e-07
-5.28287256e-07
3.0448327e-07
-7.286353167e-07
3.371805643e-07
-9.374282657e-07
3.551812518e-07
-1.147042699e-06
3.607376468e-07
-1.34968011e-06
3.531546799e-07
-1.53621881e-06
3.29507836e-07
-1.695485801e-06
2.8496704e-07
-1.814372043e-06
2.136242874e-07
-1.87520988e-06
1.111818575e-07
-1.857403116e-06
-2.604067818e-08
-1.744700556e-06
-1.979297171e-07
-1.521683116e-06
-3.920557614e-07
-1.184829542e-06
-5.830161123e-07
-7.534083378e-07
-7.289980866e-07
-3.00801296e-07
-7.553263215e-07
-5.193267013e-07
-5.122261907e-08
8.567832753e-08
-1.471158246e-07
1.8625389e-07
-2.836305701e-07
3.124970334e-07
-4.521205303e-07
4.2036629e-07
-6.446558124e-07
4.970185774e-07
-8.53260384e-07
5.457851778e-07
-1.070747897e-06
5.726688123e-07
-1.290627265e-06
5.806170759e-07
-1.506200877e-06
5.68728324e-07
-1.709648272e-06
5.329552761e-07
-1.891108984e-06
4.66427754e-07
-2.037855943e-06
3.603712543e-07
-2.133541147e-06
2.068670386e-07
-2.15859308e-06
-9.887983233e-10
-2.086168152e-06
-2.703547412e-07
-1.880899252e-06
-5.973247262e-07
-1.503586803e-06
-9.603285846e-07
-9.524805673e-07
-1.28010434e-06
-3.619948945e-07
-1.345812017e-06
-8.813216134e-07
-8.306793387e-08
1.687462772e-07
-2.145320554e-07
3.177180045e-07
-3.700011161e-07
4.679660956e-07
-5.425934255e-07
5.929586042e-07
-7.308219671e-07
6.852471371e-07
-9.322596091e-07
7.472228468e-07
-1.143387295e-06
7.837965637e-07
-1.360354702e-06
7.975845238e-07
-1.579029868e-06
7.874035261e-07
-1.794205858e-06
7.481312766e-07
-1.998689509e-06
6.7091141e-07
-2.182623916e-06
5.443056658e-07
-2.331334326e-06
3.555774175e-07
-2.423021684e-06
9.069850768e-08
-2.418239891e-06
-2.751365702e-07
-2.247791562e-06
-7.677731024e-07
-1.828160968e-06
-1.379959188e-06
-1.149776211e-06
-1.958489141e-06
-4.296307824e-07
-2.065957479e-06
-1.310952408e-06
-1.105766639e-07
2.793229486e-07
-2.688952446e-07
4.760365358e-07
-4.372844255e-07
6.363552449e-07
-6.107383188e-07
7.66412488e-07
-7.914515432e-07
8.659603886e-07
-9.812926817e-07
9.370640315e-07
-1.180655553e-06
9.831594775e-07
-1.389189406e-06
1.006118417e-06
-1.606261997e-06
1.004476135e-06
-1.830400337e-06
9.722696315e-07
-2.05873438e-06
8.992454612e-07
-2.286151078e-06
7.717223517e-07
-2.502308829e-06
5.717351344e-07
-2.68386683e-06
2.722564565e-07
-2.781747041e-06
-1.772563906e-07
-2.684171132e-06
-8.653490036e-07
-2.255407918e-06
-1.808722447e-06
-1.472946676e-06
-2.740950432e-06
-6.002783164e-07
-2.938625829e-06
-1.911230729e-06
-1.310006259e-07
4.103235527e-07
-3.064040194e-07
6.514398674e-07
-4.818180384e-07
8.117692256e-07
-6.535698727e-07
9.381642955e-07
-8.254716334e-07
1.037862168e-06
-1.002033092e-06
1.113625523e-06
-1.186953049e-06
1.168079449e-06
-1.383497395e-06
1.202662793e-06
-1.594781713e-06
1.215760467e-06
-1.823908623e-06
1.201396539e-06
-2.074144143e-06
1.14948099e-06
-2.347958989e-06
1.04553719e-06
-2.644167958e-06
8.679440763e-07
-2.947197003e-06
5.752854786e-07
-3.214272569e-06
8.981918966e-08
-3.287392773e-06
-7.922288181e-07
-2.959753867e-06
-2.136361426e-06
-2.129857324e-06
-3.570846991e-06
-1.020416702e-06
-4.048066402e-06
-2.931647402e-06
-1.44166127e-07
5.544896325e-07
-3.284257123e-07
8.356993404e-07
-5.051302677e-07
9.884737213e-07
-6.71791301e-07
1.1048253e-06
-8.329206605e-07
1.198991526e-06
-9.944632888e-07
1.275168157e-06
-1.162443307e-06
1.336059483e-06
-1.342988986e-06
1.383208472e-06
-1.542681884e-06
1.41545337e-06
-1.769643388e-06
1.428358043e-06
-2.034491928e-06
1.414329512e-06
-2.350517936e-06
1.361563169e-06
-2.733401011e-06
1.250827109e-06
-3.197796469e-06
1.039680928e-06
-3.704736312e-06
5.96759053e-07
-4.077444159e-06
-4.19520988e-07
-3.918685893e-06
-2.29511973e-06
-3.041144017e-06
-4.448388837e-06
-1.655344944e-06
-5.433865389e-06
-4.586992324e-06
-1.510052308e-07
7.054948024e-07
-3.375504117e-07
1.022244412e-06
-5.103793702e-07
1.161302607e-06
-6.681436533e-07
1.262589546e-06
-8.157359157e-07
1.346583773e-06
-9.597388304e-07
1.419171067e-06
-1.107408305e-06
1.483728936e-06
-1.266586187e-06
1.542386336e-06
-1.446411219e-06
1.595278398e-06
-1.659055442e-06
1.641002249e-06
-1.921812925e-06
1.677086969e-06
-2.259927133e-06
1.699677342e-06
-2.709634473e-06
1.700534442e-06
-3.312307196e-06
1.642353666e-06
-4.025538869e-06
1.309990712e-06
-4.485526719e-06
4.046688727e-08
-4.395546812e-06
-2.385099489e-06
-3.63588916e-06
-5.208046447e-06
-2.140135263e-06
-6.929619276e-06
-6.727127536e-06
-1.533015645e-07
8.587962911e-07
-3.367268859e-07
1.205669647e-06
-5.012485252e-07
1.325824198e-06
-6.464413589e-07
1.407782345e-06
-7.773747313e-07
1.477517101e-06
-9.007117581e-07
1.542508067e-06
-1.023951173e-06
1.606968315e-06
-1.155361537e-06
1.673796663e-06
-1.30493778e-06
1.744854593e-06
-1.486366362e-06
1.822430812e-06
-1.720126414e-06
1.910847015e-06
-2.038543023e-06
2.018093941e-06
-2.488576627e-06
2.15056806e-06
-3.104486359e-06
2.258263398e-06
-3.780773153e-06
1.986277431e-06
-4.159074856e-06
4.187686685e-07
-4.019566736e-06
-2.524607449e-06
-3.468669506e-06
-5.758943573e-06
-2.146118077e-06
-8.252170692e-06
-8.873245652e-06
-1.526127082e-07
1.011408927e-06
-3.289188847e-07
1.38197578e-06
-4.818337838e-07
1.478739093e-06
-6.113321678e-07
1.537280707e-06
-7.226390909e-07
1.588823963e-06
-8.221754851e-07
1.642044407e-06
-9.169309926e-07
1.701723763e-06
-1.014400797e-06
1.771266433e-06
-1.123403371e-06
1.853857136e-06
-1.255649705e-06
1.954677133e-06
-1.428531293e-06
2.083728597e-06
-1.669472657e-06
2.259035326e-06
-2.01769261e-06
2.498788075e-06
-2.469757937e-06
2.710328758e-06
-2.912062318e-06
2.428581788e-06
-3.111909765e-06
6.186161151e-07
-3.021669354e-06
-2.614847846e-06
-2.725425118e-06
-6.055187696e-06
-1.777214335e-06
-9.200381429e-06
-1.065046004e-05
-1.505069587e-07
1.161915861e-06
-3.178427475e-07
1.549311607e-06
-4.568280355e-07
1.617724415e-06
-5.681999628e-07
1.648652648e-06
-6.574559713e-07
1.678079918e-06
-7.306870342e-07
1.71527538e-06
-7.939624679e-07
1.764999144e-06
-8.532090253e-07
1.83051299e-06
-9.145639392e-07
1.915212031e-06
-9.850143682e-07
2.025127559e-06
-1.073538779e-06
2.172253019e-06
-1.192271932e-06
2.377768466e-06
-1.352492438e-06
2.659008578e-06
-1.536699358e-06
2.894535766e-06
-1.70637386e-06
2.598256422e-06
-1.828495125e-06
7.407372342e-07
-1.919010888e-06
-2.524332233e-06
-1.903050788e-06
-6.071147733e-06
-1.366095847e-06
-9.73733627e-06
-1.201655581e-05
-1.488397706e-07
1.310755665e-06
-3.072570351e-07
1.707728992e-06
-4.311987006e-07
1.741666133e-06
-5.22782761e-07
1.740236739e-06
-5.882668404e-07
1.743563965e-06
-6.336647824e-07
1.760673259e-06
-6.641166339e-07
1.795450937e-06
-6.838245823e-07
1.850220969e-06
-6.958482422e-07
1.927235727e-06
-7.016910871e-07
2.030970441e-06
-7.002288484e-07
2.170790795e-06
-6.852402868e-07
2.362779867e-06
-6.439277412e-07
2.617695897e-06
-5.722792523e-07
2.822887325e-06
-5.123285605e-07
2.538305955e-06
-5.714860333e-07
7.998946192e-07
-7.930035243e-07
-2.302814853e-06
-9.484195929e-07
-5.915731681e-06
-9.584555708e-07
-9.727300235e-06
-1.297501126e-05
-1.512369253e-07
1.46199268e-06
-3.021851277e-07
1.858677403e-06
-4.103301011e-07
1.849811155e-06
-4.807687569e-07
1.810675391e-06
-5.212278186e-07
1.784023025e-06
-5.381535716e-07
1.777599029e-06
-5.360162824e-07
1.793313676e-06
-5.176451614e-07
1.831849861e-06
-4.837094583e-07
1.89330002e-06
-4.316908798e-07
1.978951859e-06
-3.536389226e-07
2.092738884e-06
-2.321128974e-07
2.24125387e-06
-3.629170978e-08
2.421874674e-06
2.344057313e-07
2.552189894e-06
4.914015576e-07
2.281310201e-06
4.710476852e-07
8.202484391e-07
1.946505207e-07
-2.026417515e-06
-2.755336854e-07
-5.445547364e-06
-5.244556501e-07
-9.478378358e-06
-1.349946695e-05
-1.582784288e-07
1.620271235e-06
-3.06208725e-07
2.006607933e-06
-3.985996403e-07
1.942202113e-06
-4.465211004e-07
1.858596804e-06
-4.609422982e-07
1.798444255e-06
-4.491706365e-07
1.765827456e-06
-4.154780331e-07
1.759621228e-06
-3.617937898e-07
1.77816566e-06
-2.87569101e-07
1.819075247e-06
-1.887709297e-07
1.88015357e-06
-5.551876666e-08
1.959486701e-06
1.31592088e-07
2.054143113e-06
4.017581491e-07
2.151708799e-06
7.704790825e-07
2.183469126e-06
1.161403578e-06
1.890385492e-06
1.214483781e-06
7.671678218e-07
7.648561211e-07
-1.576789878e-06
1.164206102e-07
-4.797111611e-06
-2.17690081e-07
-9.144267632e-06
-1.371715697e-05
-1.829068722e-07
1.803178187e-06
-3.283592826e-07
2.15206048e-06
-4.004940234e-07
2.014336956e-06
-4.224128721e-07
1.880515652e-06
-4.088696197e-07
1.784901068e-06
-3.675591297e-07
1.724517044e-06
-3.027457087e-07
1.694807904e-06
-2.157053518e-07
1.691125303e-06
-1.056669963e-07
1.709036809e-06
3.076098253e-08
1.743725498e-06
2.010091694e-07
1.7892385e-06
4.188205006e-07
1.836331768e-06
7.040753152e-07
1.866453977e-06
1.065724631e-06
1.821819786e-06
1.427317146e-06
1.528792823e-06
1.537820357e-06
6.566647381e-07
1.120383121e-06
-1.15935256e-06
4.845257277e-07
-4.161254228e-06
4.90070586e-08
-8.708749233e-06
-1.366815033e-05
-2.284327795e-07
2.03161102e-06
-3.70909975e-07
2.294537591e-06
-4.157835912e-07
2.059210671e-06
-4.056711128e-07
1.870403258e-06
-3.59160825e-07
1.738390863e-06
-2.852879014e-07
1.650644218e-06
-1.874485591e-07
1.596968517e-06
-6.6165874e-08
1.569842536e-06
7.908134496e-08
1.563789642e-06
2.50219983e-07
1.572587007e-06
4.506011385e-07
1.588857355e-06
6.866376188e-07
1.60029507e-06
9.638278533e-07
1.589263702e-06
1.278895896e-06
1.506751838e-06
1.560729136e-06
1.246959434e-06
1.651090177e-06
5.663038787e-07
1.31234934e-06
-8.206115854e-07
6.867876987e-07
-3.535692918e-06
1.915894849e-07
-8.213550945e-06
-1.347656069e-05
-3.445003632e-07
2.376111443e-06
-4.543718888e-07
2.404408935e-06
-4.421829558e-07
2.047021714e-06
-3.765027046e-07
1.804723144e-06
-2.816492863e-07
1.643537527e-06
-1.64242804e-07
1.533237738e-06
-2.476470726e-08
1.45749035e-06
1.383220038e-07
1.406755794e-06
3.248707258e-07
1.377240905e-06
5.360331745e-07
1.361424545e-06
7.718760914e-07
1.353014574e-06
1.034619855e-06
1.337551402e-06
1.314898775e-06
1.30898479e-06
1.602843223e-06
1.218807537e-06
1.827854983e-06
1.021947666e-06
1.892441643e-06
5.01717093e-07
1.610143152e-06
-5.383130957e-07
9.971936498e-07
-2.92274378e-06
3.746166327e-07
-7.590974161e-06
-1.310194431e-05
-5.890895456e-07
2.965201035e-06
-5.668125153e-07
2.382131761e-06
-3.952738623e-07
1.875483034e-06
-2.144987996e-07
1.623948031e-06
-2.151337243e-08
1.450552121e-06
1.84264175e-07
1.327460273e-06
4.053502019e-07
1.236404465e-06
6.486811495e-07
1.163424937e-06
9.114908551e-07
1.114431233e-06
1.194848344e-06
1.078067183e-06
1.496330043e-06
1.051532927e-06
1.823353006e-06
1.010528416e-06
2.146983318e-06
9.853545894e-07
2.45929519e-06
9.064957027e-07
2.675714779e-06
8.055280132e-07
2.771069727e-06
4.063620982e-07
2.584619478e-06
-3.518628478e-07
2.011137733e-06
-2.349262169e-06
9.666291923e-07
-6.546465647e-06
-1.213531525e-05
-4.874636216e-07
3.452664647e-06
-1.55485669e-07
2.050153742e-06
3.609773245e-07
1.359019936e-06
8.561936396e-07
1.12873161e-06
1.325599509e-06
9.811462443e-07
1.771800349e-06
8.81259556e-07
2.2005956e-06
8.076093836e-07
2.63592846e-06
7.280922684e-07
3.07302912e-06
6.773307346e-07
3.508067231e-06
6.430289348e-07
3.934960803e-06
6.246390963e-07
4.385747399e-06
5.597419711e-07
4.806688252e-06
5.644139414e-07
5.23983123e-06
4.73352671e-07
5.596522799e-06
4.48836499e-07
5.833044377e-06
1.698405342e-07
5.752345944e-06
-2.711643376e-07
5.139866523e-06
-1.736782529e-06
2.95898349e-06
-4.365583072e-06
-9.176331544e-06
3.452664627e-06
5.502818329e-06
6.861838225e-06
7.99056989e-06
8.971716222e-06
9.852975799e-06
1.066058517e-05
1.13886775e-05
1.206600829e-05
1.270903723e-05
1.333367641e-05
1.389341844e-05
1.445783239e-05
1.493118494e-05
1.538002143e-05
1.554986201e-05
1.527869723e-05
1.354191482e-05
9.17633176e-06
)
;

boundaryField
{
    movingWall
    {
        type            calculated;
        value           uniform 0;
    }
    fixedWalls
    {
        type            calculated;
        value           uniform 0;
    }
    frontAndBack
    {
        type            empty;
        value           nonuniform List<scalar> 0();
    }
}


// ************************************************************************* //
