/*--------------------------------*- C++ -*----------------------------------*\
  =========                 |
  \\      /  F ield         | OpenFOAM: The Open Source CFD Toolbox
   \\    /   O peration     | Website:  https://openfoam.org
    \\  /    A nd           | Version:  dev
     \\/     M anipulation  |
\*---------------------------------------------------------------------------*/
FoamFile
{
    format      ascii;
    class       volScalarField;
    location    "1";
    object      T;
}
// * * * * * * * * * * * * * * * * * * * * * * * * * * * * * * * * * * * * * //

dimensions      [0 0 0 1 0 0 0];

internalField   nonuniform List<scalar> 
400
(
300.0000012
300.0000012
300.0000012
300.0000012
300.0000013
300.0000014
300.0000014
300.0000016
300.0000017
300.0000019
300.0000022
300.0000025
300.0000028
300.0000032
300.0000036
300.000004
300.0000043
300.0000046
300.0000048
300.0000049
300.0000012
300.0000012
300.0000012
300.0000012
300.0000012
300.0000013
300.0000014
300.0000015
300.0000016
300.0000018
300.000002
300.0000023
300.0000026
300.000003
300.0000034
300.0000038
300.0000043
300.0000046
300.0000049
300.0000049
300.0000012
300.0000012
300.0000011
300.0000011
300.0000011
300.0000012
300.0000012
300.0000013
300.0000015
300.0000016
300.0000018
300.0000021
300.0000024
300.0000027
300.0000032
300.0000037
300.0000042
300.0000047
300.0000049
300.000005
300.0000012
300.0000011
300.0000011
300.000001
300.000001
300.0000011
300.0000011
300.0000012
300.0000013
300.0000014
300.0000016
300.0000018
300.0000021
300.0000025
300.0000029
300.0000035
300.0000041
300.0000047
300.0000051
300.0000052
300.0000011
300.000001
300.000001
300.0000009
300.0000009
300.0000009
300.0000009
300.000001
300.0000011
300.0000012
300.0000013
300.0000015
300.0000018
300.0000022
300.0000027
300.0000032
300.0000039
300.0000044
300.000005
300.0000052
300.000001
300.0000009
300.0000009
300.0000008
300.0000008
300.0000007
300.0000007
300.0000008
300.0000008
300.0000009
300.000001
300.0000012
300.0000015
300.0000018
300.0000022
300.0000026
300.0000028
300.000003
300.0000042
300.0000048
300.000001
300.0000008
300.0000007
300.0000007
300.0000006
300.0000006
300.0000005
300.0000005
300.0000006
300.0000006
300.0000007
300.0000008
300.000001
300.0000012
300.0000012
300.0000008
299.9999999
299.9999999
300.0000022
300.0000034
300.0000008
300.0000007
300.0000006
300.0000005
300.0000004
300.0000004
300.0000003
300.0000003
300.0000003
300.0000003
300.0000003
300.0000003
300.0000003
300.0000002
299.9999994
299.9999974
299.999996
299.9999959
299.9999994
300.0000015
300.0000007
300.0000006
300.0000004
300.0000003
300.0000003
300.0000002
300.0000001
300.0000001
300
299.9999999
299.9999999
299.9999997
299.9999995
299.9999988
299.9999969
299.9999936
299.9999923
299.9999923
299.999996
299.9999994
300.0000006
300.0000004
300.0000003
300.0000002
300.0000001
300
300
299.9999999
299.9999998
299.9999996
299.9999994
299.9999992
299.9999986
299.9999974
299.9999946
299.9999908
299.9999893
299.999989
299.9999909
299.9999959
300.0000005
300.0000003
300.0000001
300.0000001
300
299.9999999
299.9999998
299.9999997
299.9999995
299.9999993
299.9999991
299.9999987
299.9999979
299.9999963
299.9999933
299.9999895
299.9999877
299.9999868
299.9999863
299.999991
300.0000003
300.0000001
300
299.9999999
299.9999998
299.9999997
299.9999996
299.9999995
299.9999993
299.9999991
299.9999988
299.9999983
299.9999975
299.9999959
299.9999932
299.9999897
299.9999877
299.9999862
299.9999841
299.9999876
300.0000002
300
299.9999999
299.9999998
299.9999997
299.9999996
299.9999995
299.9999993
299.9999991
299.9999989
299.9999986
299.9999981
299.9999974
299.9999961
299.9999937
299.9999907
299.9999888
299.9999862
299.9999831
299.9999848
300.0000001
299.9999999
299.9999998
299.9999997
299.9999996
299.9999995
299.9999994
299.9999992
299.999999
299.9999987
299.9999984
299.999998
299.9999974
299.9999964
299.9999948
299.9999926
299.9999907
299.9999872
299.9999827
299.9999829
299.9999999
299.9999998
299.9999997
299.9999997
299.9999996
299.9999994
299.9999993
299.9999991
299.9999988
299.9999986
299.9999982
299.9999979
299.9999974
299.9999967
299.9999958
299.9999943
299.9999924
299.9999879
299.9999825
299.9999813
299.9999998
299.9999997
299.9999997
299.9999996
299.9999995
299.9999993
299.9999991
299.9999989
299.9999986
299.9999983
299.999998
299.9999976
299.9999971
299.9999966
299.999996
299.999995
299.999993
299.9999882
299.9999825
299.9999801
299.9999995
299.9999996
299.9999996
299.9999995
299.9999993
299.9999991
299.9999988
299.9999985
299.9999981
299.9999977
299.9999973
299.9999969
299.9999964
299.9999959
299.9999954
299.9999946
299.9999927
299.999988
299.9999828
299.9999797
299.9999994
299.9999995
299.9999993
299.9999991
299.9999987
299.9999983
299.9999979
299.9999974
299.9999968
299.9999961
299.9999955
299.9999948
299.9999942
299.9999935
299.9999928
299.999992
299.9999903
299.9999868
299.9999847
299.9999831
299.9999978
299.9999982
299.9999977
299.9999969
299.999996
299.9999951
299.999994
299.999993
299.9999919
299.9999906
299.9999894
299.9999883
299.999987
299.999986
299.9999847
299.999984
299.9999836
299.9999844
299.9999883
299.9999894
299.9999951
299.9999952
299.9999941
299.9999919
299.9999898
299.9999881
299.9999858
299.9999841
299.9999818
299.9999804
299.9999781
299.9999767
299.9999745
299.9999734
299.9999713
299.9999713
299.9999728
299.9999781
299.9999899
299.999992
)
;

boundaryField
{
    movingWall
    {
        type            zeroGradient;
    }
    fixedWalls
    {
        type            zeroGradient;
    }
    frontAndBack
    {
        type            empty;
    }
}


// ************************************************************************* //
