/*--------------------------------*- C++ -*----------------------------------*\
  =========                 |
  \\      /  F ield         | OpenFOAM: The Open Source CFD Toolbox
   \\    /   O peration     | Website:  https://openfoam.org
    \\  /    A nd           | Version:  dev
     \\/     M anipulation  |
\*---------------------------------------------------------------------------*/
FoamFile
{
    format      ascii;
    class       volVectorField;
    location    "1";
    object      U;
}
// * * * * * * * * * * * * * * * * * * * * * * * * * * * * * * * * * * * * * //

dimensions      [0 1 -1 0 0 0 0];

internalField   nonuniform List<vector> 
400
(
(-4.281050392e-05 5.221182428e-05 0)
(-0.0003458575834 0.0001554414314 0)
(-0.001172727927 0.0003429569836 0)
(-0.002640540216 0.0005114391578 0)
(-0.004579613297 0.0006337659528 0)
(-0.006837372195 0.0007254383948 0)
(-0.009302151462 0.000801271146 0)
(-0.01188894888 0.0008648747089 0)
(-0.01451222353 0.0009097263186 0)
(-0.0170647495 0.000921430116 0)
(-0.01940611998 0.0008748496621 0)
(-0.02139886198 0.0007347264326 0)
(-0.02259648775 0.0005129189494 0)
(-0.02300365894 0.0002157664723 0)
(-0.02217817817 -0.0003296746101 0)
(-0.01993263249 -0.0009381891179 0)
(-0.0162975203 -0.00154228059 0)
(-0.01154985219 -0.001952325668 0)
(-0.006357467908 -0.002009048007 0)
(-0.001632895643 -0.00158653578 0)
(-9.393969823e-05 0.0003120070733 0)
(-0.0007795227564 0.0009322637033 0)
(-0.002211161762 0.001993813283 0)
(-0.004519693408 0.00295914093 0)
(-0.007470801617 0.003616322266 0)
(-0.01082196978 0.004021111738 0)
(-0.01438816409 0.004250719368 0)
(-0.01803098639 0.004335110029 0)
(-0.02162104426 0.004262840108 0)
(-0.02501464818 0.003993105239 0)
(-0.02804056533 0.00345760629 0)
(-0.03049120152 0.002573349259 0)
(-0.03207489211 0.001287082937 0)
(-0.03248080251 -0.0004497667577 0)
(-0.03136541782 -0.002627363634 0)
(-0.02843386545 -0.005018857224 0)
(-0.02351874091 -0.007170860959 0)
(-0.01676949549 -0.008547139809 0)
(-0.009065145433 -0.008619514259 0)
(-0.001944931695 -0.006102294327 0)
(-0.0002321639106 0.0009332110466 0)
(-0.001605143251 0.002265886715 0)
(-0.003614731095 0.004170702087 0)
(-0.006236170452 0.005836124764 0)
(-0.009385544773 0.006999085856 0)
(-0.01288801959 0.007717723331 0)
(-0.01659682139 0.008101270299 0)
(-0.02039986767 0.008202254224 0)
(-0.02418841732 0.008008539427 0)
(-0.02784096336 0.007458787264 0)
(-0.03121174287 0.006449956006 0)
(-0.03410159252 0.004852161978 0)
(-0.0362616786 0.002564493997 0)
(-0.03737860644 -0.0004925134341 0)
(-0.03703309418 -0.004297945119 0)
(-0.03466541895 -0.008639605657 0)
(-0.02961783929 -0.01306147759 0)
(-0.02143860671 -0.01663524694 0)
(-0.01127200161 -0.01736036899 0)
(-0.002088616429 -0.01175480203 0)
(-0.0004089622522 0.002113253111 0)
(-0.002538379551 0.004259128928 0)
(-0.005034728706 0.00668906784 0)
(-0.007800423 0.008751520984 0)
(-0.01091764129 0.01025278408 0)
(-0.01430659638 0.01123124426 0)
(-0.01788826206 0.01178162 0)
(-0.02160114754 0.01195589599 0)
(-0.02538122437 0.01173697817 0)
(-0.02915541924 0.01104581049 0)
(-0.03281859167 0.009747926698 0)
(-0.0362276246 0.007669336972 0)
(-0.03917917524 0.004646046483 0)
(-0.04136403252 0.0005193706588 0)
(-0.04225632774 -0.004869739106 0)
(-0.04088592495 -0.01167587269 0)
(-0.03581994186 -0.01960971001 0)
(-0.02614255207 -0.02693712619 0)
(-0.01364885526 -0.02853077439 0)
(-0.002207362286 -0.01843547475 0)
(-0.0005646164888 0.003811183118 0)
(-0.003310586601 0.006791432387 0)
(-0.006167410413 0.009491856562 0)
(-0.009015014152 0.01172340252 0)
(-0.01204831724 0.01340949972 0)
(-0.01525493868 0.01457864282 0)
(-0.01862138951 0.0152978949 0)
(-0.02214623087 0.01560446289 0)
(-0.0258261114 0.01547551245 0)
(-0.02964939905 0.01481500241 0)
(-0.03357926816 0.01345507125 0)
(-0.03755430106 0.01118257259 0)
(-0.04145297613 0.007742767652 0)
(-0.04502640115 0.002805232049 0)
(-0.04768143961 -0.004190049102 0)
(-0.0479239553 -0.01404697773 0)
(-0.0434359898 -0.02681913404 0)
(-0.03295215488 -0.03932608068 0)
(-0.0186391236 -0.04193095983 0)
(-0.002887988955 -0.02671483128 0)
(-0.0006740636051 0.005916172653 0)
(-0.003855865236 0.009695296395 0)
(-0.006936731187 0.01247975462 0)
(-0.009810387074 0.01471516576 0)
(-0.01273518304 0.0164570225 0)
(-0.01573583923 0.01774162674 0)
(-0.01884846531 0.01861601433 0)
(-0.02213070782 0.01910532014 0)
(-0.02564200039 0.01918170202 0)
(-0.02943714769 0.01873755353 0)
(-0.03357123611 0.01759154353 0)
(-0.03809784182 0.01549606992 0)
(-0.04304694781 0.01210825521 0)
(-0.04837029983 0.006854830369 0)
(-0.05358353906 -0.001403176273 0)
(-0.05680130773 -0.01438839247 0)
(-0.05502377207 -0.03305349845 0)
(-0.04547584067 -0.05249040018 0)
(-0.0293916541 -0.0578689806 0)
(-0.005190331388 -0.03870161375 0)
(-0.0007381959484 0.008303187211 0)
(-0.004193806202 0.01281589307 0)
(-0.007370058393 0.01553831181 0)
(-0.01020156772 0.01765337069 0)
(-0.01297987825 0.01934496288 0)
(-0.01574637547 0.02067136033 0)
(-0.01857124238 0.02167511619 0)
(-0.02155708065 0.02237930347 0)
(-0.02481372407 0.02275621934 0)
(-0.02846489724 0.02270914497 0)
(-0.03266779017 0.02207628325 0)
(-0.03762063659 0.02061504737 0)
(-0.04358677168 0.01795247103 0)
(-0.05094138754 0.01338054996 0)
(-0.05963094182 0.005093253478 0)
(-0.0679657963 -0.01059445067 0)
(-0.07182949578 -0.03728696469 0)
(-0.0619425329 -0.06633914159 0)
(-0.04339917569 -0.07748935995 0)
(-0.01005463973 -0.05831691821 0)
(-0.0007672650996 0.010858275 0)
(-0.004362854065 0.01602866048 0)
(-0.007523068367 0.01857171423 0)
(-0.01024014829 0.02047005075 0)
(-0.01282084869 0.02202469623 0)
(-0.01531217207 0.02332362827 0)
(-0.0178032476 0.02441817628 0)
(-0.02042051119 0.02533833025 0)
(-0.02330740954 0.02607137046 0)
(-0.02664125389 0.02656114339 0)
(-0.03066324031 0.02670920914 0)
(-0.03569826589 0.02635829647 0)
(-0.04223764052 0.02523874119 0)
(-0.05119379315 0.0226593221 0)
(-0.06364716346 0.01576844177 0)
(-0.07643182309 -0.003251216567 0)
(-0.07940668005 -0.04030217513 0)
(-0.07083488562 -0.08273258832 0)
(-0.05134097643 -0.1038454131 0)
(-0.01598864416 -0.09285807945 0)
(-0.0007732085681 0.01348312131 0)
(-0.004406648727 0.01923714946 0)
(-0.007457281612 0.02149829694 0)
(-0.009993090102 0.02310006248 0)
(-0.01232110116 0.02444378242 0)
(-0.01448772365 0.02564738264 0)
(-0.01658727881 0.0267771009 0)
(-0.01875046245 0.02787620508 0)
(-0.02113028051 0.02896074829 0)
(-0.02392249291 0.03003602639 0)
(-0.02739833777 0.03111083718 0)
(-0.03193267714 0.03220122407 0)
(-0.0380888317 0.03325852571 0)
(-0.04721142181 0.03344588133 0)
(-0.06086837325 0.02784603098 0)
(-0.07343897425 0.003564967435 0)
(-0.07386033786 -0.04549275297 0)
(-0.06358845908 -0.09925783631 0)
(-0.04839804506 -0.1339228339 0)
(-0.01819248086 -0.1385698774 0)
(-0.0007839482494 0.01613232855 0)
(-0.004357011631 0.02234970352 0)
(-0.007239199323 0.0242500398 0)
(-0.009538197908 0.0254838715 0)
(-0.01156290254 0.02654811528 0)
(-0.01335561509 0.02758593168 0)
(-0.01500574332 0.02867721174 0)
(-0.01663266665 0.02987814404 0)
(-0.0183730825 0.03123457596 0)
(-0.02039665971 0.0328142823 0)
(-0.02292732549 0.03474369257 0)
(-0.02625627908 0.03724457084 0)
(-0.03079378443 0.04047508215 0)
(-0.03775119422 0.04314282093 0)
(-0.04874597471 0.03752229886 0)
(-0.05785720592 0.00770038547 0)
(-0.05478319459 -0.04790489637 0)
(-0.04804783559 -0.1075309877 0)
(-0.03980922186 -0.157199874 0)
(-0.01287067839 -0.1743479857 0)
(-0.0008046445059 0.01875211872 0)
(-0.004266546103 0.02531979351 0)
(-0.006943734458 0.02677786778 0)
(-0.008963667298 0.02757262006 0)
(-0.01064408827 0.02828953342 0)
(-0.01202251714 0.0290879693 0)
(-0.01317852835 0.0300535807 0)
(-0.01421115951 0.03124709034 0)
(-0.01522265313 0.0327301633 0)
(-0.01632268509 0.03460784618 0)
(-0.01762962747 0.03708313377 0)
(-0.01924086947 0.04051061012 0)
(-0.02132418213 0.04520667218 0)
(-0.02410468395 0.04907925529 0)
(-0.03020352061 0.04336723452 0)
(-0.03524428866 0.01103874739 0)
(-0.03238765054 -0.04609640152 0)
(-0.03068279536 -0.107525315 0)
(-0.03344355709 -0.1683758703 0)
(-0.003730739374 -0.2013107528 0)
(-0.0008434052805 0.02136301848 0)
(-0.004188455735 0.02814062154 0)
(-0.006649426801 0.02905291455 0)
(-0.008362876092 0.02933137242 0)
(-0.009669535033 0.02963227041 0)
(-0.01060621544 0.0301179506 0)
(-0.01124434341 0.03086726597 0)
(-0.01166148695 0.03193194711 0)
(-0.01192140879 0.03336615674 0)
(-0.01206498082 0.03526948786 0)
(-0.01209269063 0.03784221435 0)
(-0.01190772329 0.04143384936 0)
(-0.01124040927 0.04632464783 0)
(-0.01005372864 0.05028506641 0)
(-0.01038838784 0.04531598715 0)
(-0.01174651977 0.01363630416 0)
(-0.01124816161 -0.0420740809 0)
(-0.01183929757 -0.1047452427 0)
(-0.02417736884 -0.1698996459 0)
(0.0004444350024 -0.2190899984 0)
(-0.000937317583 0.02391116086 0)
(-0.004205749242 0.03080165871 0)
(-0.006446976734 0.03105917863 0)
(-0.007830719667 0.03073644503 0)
(-0.008740787951 0.03055207422 0)
(-0.009218169842 0.03065712161 0)
(-0.009335073894 0.03110901047 0)
(-0.009150095898 0.03193467562 0)
(-0.008697701091 0.03315860617 0)
(-0.007966896476 0.03483688241 0)
(-0.006874745335 0.03709480522 0)
(-0.005201651784 0.04014464679 0)
(-0.002467456256 0.04408231151 0)
(0.001645437081 0.04733860261 0)
(0.006129278741 0.04319295604 0)
(0.008456067218 0.01522027979 0)
(0.005457014843 -0.03678753004 0)
(0.003810951181 -0.09708237979 0)
(-0.01761491015 -0.1648923061 0)
(0.007543752568 -0.2284222548 0)
(-0.001079083761 0.02674948877 0)
(-0.004354618988 0.03340427219 0)
(-0.006413858643 0.03279693752 0)
(-0.007443826808 0.03176115903 0)
(-0.007931834423 0.03102544022 0)
(-0.007941575401 0.0307006666 0)
(-0.007542164759 0.0307910781 0)
(-0.00678539709 0.03129596351 0)
(-0.005687813946 0.03219556477 0)
(-0.004215363237 0.03348293914 0)
(-0.002258054614 0.03517870433 0)
(0.0004161484849 0.03731792942 0)
(0.004271753519 0.0397800704 0)
(0.009718843059 0.04138625207 0)
(0.01654933235 0.03692631938 0)
(0.02104583763 0.01556592735 0)
(0.01686861075 -0.02965609902 0)
(0.01500173349 -0.08735521916 0)
(-0.01398036998 -0.1597757192 0)
(0.01212763182 -0.2351665172 0)
(-0.001444409022 0.02943765909 0)
(-0.004838823025 0.03586196632 0)
(-0.006656742373 0.0342161884 0)
(-0.007247367009 0.03237114488 0)
(-0.007275937525 0.03102928061 0)
(-0.006794844213 0.03023145798 0)
(-0.005875225179 0.02992874447 0)
(-0.004564670847 0.03006472993 0)
(-0.002871692782 0.03057915511 0)
(-0.0007647065487 0.03140762402 0)
(0.001843443524 0.03247676393 0)
(0.005129361761 0.03367945883 0)
(0.009391928338 0.03474464917 0)
(0.01487114649 0.03462462398 0)
(0.02149070397 0.02969424527 0)
(0.02654298754 0.01299267948 0)
(0.02273270674 -0.02222768228 0)
(0.02198500378 -0.07609260536 0)
(-0.01197696599 -0.1530675313 0)
(0.01840716563 -0.2401315468 0)
(-0.001898398339 0.03353193777 0)
(-0.005710662745 0.03848543826 0)
(-0.007209496455 0.03526217432 0)
(-0.00720907185 0.03247151314 0)
(-0.006697594173 0.03053155664 0)
(-0.005659037618 0.02926357772 0)
(-0.004176330316 0.02855305888 0)
(-0.002286111925 0.02829684982 0)
(8.065661292e-06 0.02840594062 0)
(0.002725286986 0.02877995006 0)
(0.005908657885 0.02929175836 0)
(0.009642979124 0.0297421592 0)
(0.01402618722 0.02980726015 0)
(0.01910475482 0.02858832068 0)
(0.02453216164 0.02372116102 0)
(0.02873381413 0.01043076098 0)
(0.02527943892 -0.0166378884 0)
(0.02631770888 -0.06616867135 0)
(-0.01167953179 -0.1492028504 0)
(0.02469781424 -0.2443102823 0)
(-0.003359761737 0.03708870165 0)
(-0.007664583318 0.04065378973 0)
(-0.00814745472 0.0357656385 0)
(-0.007112437727 0.03202590925 0)
(-0.005761204777 0.02947281709 0)
(-0.003942059547 0.02776576929 0)
(-0.001727749545 0.02666363781 0)
(0.0008839202111 0.02601650056 0)
(0.00389668569 0.02573280658 0)
(0.007323033371 0.02569465756 0)
(0.01116397952 0.02577413012 0)
(0.01546150819 0.02572653704 0)
(0.02011636467 0.02528206063 0)
(0.02504715975 0.02362165569 0)
(0.02952129341 0.01940450403 0)
(0.03305107816 0.00891969874 0)
(0.02968560961 -0.01226594437 0)
(0.03190106606 -0.05839761367 0)
(-0.01023930268 -0.1441785902 0)
(0.03452239009 -0.2421558937 0)
(-0.006698710027 0.04917201545 0)
(-0.01188810118 0.04347985543 0)
(-0.007983887081 0.03548593789 0)
(-0.005337798051 0.03085144972 0)
(-0.002133653065 0.02765814676 0)
(0.00132729061 0.02545658475 0)
(0.005004972105 0.02390833033 0)
(0.009027244306 0.02277588451 0)
(0.01337257791 0.02203365077 0)
(0.01810733442 0.02153698435 0)
(0.0231047082 0.0212028507 0)
(0.02858063252 0.02069656581 0)
(0.03403160242 0.02012742448 0)
(0.03974174776 0.01856020844 0)
(0.04374079729 0.01572332965 0)
(0.04764772149 0.007889983483 0)
(0.0440294959 -0.008083403068 0)
(0.04673389334 -0.04892950048 0)
(0.003371683154 -0.1302913958 0)
(0.05373442526 -0.2202631352 0)
(-0.003659435445 0.04055696387 0)
(-0.009109934978 0.02652081646 0)
(0.002357353197 0.02119693645 0)
(0.01053831405 0.02000462063 0)
(0.018775831 0.01884172594 0)
(0.02672118408 0.01736881216 0)
(0.03426210288 0.01605183579 0)
(0.04181647002 0.01499300213 0)
(0.04919303403 0.01431481035 0)
(0.05690287696 0.01379175671 0)
(0.06405956267 0.0134218988 0)
(0.07205332238 0.01296638819 0)
(0.07865005785 0.01267556432 0)
(0.08694751061 0.01140725289 0)
(0.09156652292 0.009793803276 0)
(0.09841236497 0.003766382117 0)
(0.09517691767 -0.00682957195 0)
(0.09659173278 -0.0367250676 0)
(0.05641418328 -0.09570324485 0)
(0.09399679434 -0.1705301514 0)
(0.06592454724 0.09280718113 0)
(0.07046922862 0.06042644125 0)
(0.1048940005 0.03717442891 0)
(0.1300288647 0.02663589608 0)
(0.1476846723 0.02061395717 0)
(0.1634036585 0.01784554134 0)
(0.1772326867 0.01618628498 0)
(0.1908292715 0.01405663338 0)
(0.2022779111 0.01263363834 0)
(0.2146095176 0.01159946672 0)
(0.2240538952 0.01098893355 0)
(0.2359236332 0.008616384936 0)
(0.2430402881 0.009083254079 0)
(0.2534726443 0.007400321121 0)
(0.2593724936 0.009253834221 0)
(0.2669397081 0.004748207763 0)
(0.2647917366 0.002015856256 0)
(0.2538478578 -0.00778113028 0)
(0.2066073539 -0.01904264033 0)
(0.1859333459 -0.08897501767 0)
)
;

boundaryField
{
    movingWall
    {
        type            fixedValue;
        value           uniform (1 0 0);
    }
    fixedWalls
    {
        type            fixedValue;
        value           uniform (0 0 0);
    }
    frontAndBack
    {
        type            empty;
    }
}


// ************************************************************************* //
